h 0.1 0 6 tcp 40 ------- 1 0.0 3.0 0 0
+ 0.33 0 6 tcp 40 ------- 1 0.0 3.0 0 0
- 0.33 0 6 tcp 40 ------- 1 0.0 3.0 0 0
d 0.330004 5 6 tcp 40 ------- 1 0.0 3.0 0 0
d 0.330004 4 6 tcp 40 ------- 1 0.0 3.0 0 0
d 0.330004 2 6 tcp 40 ------- 1 0.0 3.0 0 0
d 0.330004 1 6 tcp 40 ------- 1 0.0 3.0 0 0
r 0.560004 6 3 tcp 40 ------- 1 0.0 3.0 0 0
h 0.560004 3 6 ack 40 ------- 1 3.0 0.0 0 1
+ 0.790004 3 6 ack 40 ------- 1 3.0 0.0 0 1
- 0.790004 3 6 ack 40 ------- 1 3.0 0.0 0 1
d 0.790008 5 6 ack 40 ------- 1 3.0 0.0 0 1
d 0.790008 4 6 ack 40 ------- 1 3.0 0.0 0 1
d 0.790008 2 6 ack 40 ------- 1 3.0 0.0 0 1
d 0.790008 1 6 ack 40 ------- 1 3.0 0.0 0 1
r 1.020008 6 0 ack 40 ------- 1 3.0 0.0 0 1
h 1.020008 0 6 tcp 1040 ------- 1 0.0 3.0 1 2
h 1.020008 0 6 tcp 1040 ------- 1 0.0 3.0 2 3
+ 1.250008 0 6 tcp 1040 ------- 1 0.0 3.0 1 2
- 1.250008 0 6 tcp 1040 ------- 1 0.0 3.0 1 2
+ 1.250008 0 6 tcp 1040 ------- 1 0.0 3.0 2 3
d 1.250012 5 6 tcp 1040 ------- 1 0.0 3.0 1 2
d 1.250012 4 6 tcp 1040 ------- 1 0.0 3.0 1 2
d 1.250012 2 6 tcp 1040 ------- 1 0.0 3.0 1 2
d 1.250012 1 6 tcp 1040 ------- 1 0.0 3.0 1 2
- 1.254424 0 6 tcp 1040 ------- 1 0.0 3.0 2 3
d 1.254428 5 6 tcp 1040 ------- 1 0.0 3.0 2 3
d 1.254428 4 6 tcp 1040 ------- 1 0.0 3.0 2 3
d 1.254428 2 6 tcp 1040 ------- 1 0.0 3.0 2 3
d 1.254428 1 6 tcp 1040 ------- 1 0.0 3.0 2 3
r 1.480012 6 3 tcp 1040 ------- 1 0.0 3.0 1 2
h 1.480012 3 6 ack 40 ------- 1 3.0 0.0 1 4
r 1.484428 6 3 tcp 1040 ------- 1 0.0 3.0 2 3
h 1.484428 3 6 ack 40 ------- 1 3.0 0.0 2 5
+ 1.710012 3 6 ack 40 ------- 1 3.0 0.0 1 4
- 1.710012 3 6 ack 40 ------- 1 3.0 0.0 1 4
d 1.710016 5 6 ack 40 ------- 1 3.0 0.0 1 4
d 1.710016 4 6 ack 40 ------- 1 3.0 0.0 1 4
d 1.710016 2 6 ack 40 ------- 1 3.0 0.0 1 4
d 1.710016 1 6 ack 40 ------- 1 3.0 0.0 1 4
+ 1.714428 3 6 ack 40 ------- 1 3.0 0.0 2 5
- 1.714428 3 6 ack 40 ------- 1 3.0 0.0 2 5
d 1.714432 5 6 ack 40 ------- 1 3.0 0.0 2 5
d 1.714432 4 6 ack 40 ------- 1 3.0 0.0 2 5
d 1.714432 2 6 ack 40 ------- 1 3.0 0.0 2 5
d 1.714432 1 6 ack 40 ------- 1 3.0 0.0 2 5
r 1.940016 6 0 ack 40 ------- 1 3.0 0.0 1 4
h 1.940016 0 6 tcp 1040 ------- 1 0.0 3.0 3 6
h 1.940016 0 6 tcp 1040 ------- 1 0.0 3.0 4 7
r 1.944432 6 0 ack 40 ------- 1 3.0 0.0 2 5
h 1.944432 0 6 tcp 1040 ------- 1 0.0 3.0 5 8
h 1.944432 0 6 tcp 1040 ------- 1 0.0 3.0 6 9
+ 2.170016 0 6 tcp 1040 ------- 1 0.0 3.0 3 6
- 2.170016 0 6 tcp 1040 ------- 1 0.0 3.0 3 6
+ 2.170016 0 6 tcp 1040 ------- 1 0.0 3.0 4 7
d 2.17002 5 6 tcp 1040 ------- 1 0.0 3.0 3 6
d 2.17002 4 6 tcp 1040 ------- 1 0.0 3.0 3 6
d 2.17002 2 6 tcp 1040 ------- 1 0.0 3.0 3 6
d 2.17002 1 6 tcp 1040 ------- 1 0.0 3.0 3 6
+ 2.174432 0 6 tcp 1040 ------- 1 0.0 3.0 5 8
+ 2.174432 0 6 tcp 1040 ------- 1 0.0 3.0 6 9
- 2.174432 0 6 tcp 1040 ------- 1 0.0 3.0 4 7
d 2.174436 5 6 tcp 1040 ------- 1 0.0 3.0 4 7
d 2.174436 4 6 tcp 1040 ------- 1 0.0 3.0 4 7
d 2.174436 2 6 tcp 1040 ------- 1 0.0 3.0 4 7
d 2.174436 1 6 tcp 1040 ------- 1 0.0 3.0 4 7
- 2.178848 0 6 tcp 1040 ------- 1 0.0 3.0 5 8
d 2.178852 5 6 tcp 1040 ------- 1 0.0 3.0 5 8
d 2.178852 4 6 tcp 1040 ------- 1 0.0 3.0 5 8
d 2.178852 2 6 tcp 1040 ------- 1 0.0 3.0 5 8
d 2.178852 1 6 tcp 1040 ------- 1 0.0 3.0 5 8
- 2.183264 0 6 tcp 1040 ------- 1 0.0 3.0 6 9
d 2.183268 5 6 tcp 1040 ------- 1 0.0 3.0 6 9
d 2.183268 4 6 tcp 1040 ------- 1 0.0 3.0 6 9
d 2.183268 2 6 tcp 1040 ------- 1 0.0 3.0 6 9
d 2.183268 1 6 tcp 1040 ------- 1 0.0 3.0 6 9
r 2.40002 6 3 tcp 1040 ------- 1 0.0 3.0 3 6
h 2.40002 3 6 ack 40 ------- 1 3.0 0.0 3 10
r 2.404436 6 3 tcp 1040 ------- 1 0.0 3.0 4 7
h 2.404436 3 6 ack 40 ------- 1 3.0 0.0 4 11
r 2.408852 6 3 tcp 1040 ------- 1 0.0 3.0 5 8
h 2.408852 3 6 ack 40 ------- 1 3.0 0.0 5 12
r 2.413268 6 3 tcp 1040 ------- 1 0.0 3.0 6 9
h 2.413268 3 6 ack 40 ------- 1 3.0 0.0 6 13
+ 2.63002 3 6 ack 40 ------- 1 3.0 0.0 3 10
- 2.63002 3 6 ack 40 ------- 1 3.0 0.0 3 10
d 2.630024 5 6 ack 40 ------- 1 3.0 0.0 3 10
d 2.630024 4 6 ack 40 ------- 1 3.0 0.0 3 10
d 2.630024 2 6 ack 40 ------- 1 3.0 0.0 3 10
d 2.630024 1 6 ack 40 ------- 1 3.0 0.0 3 10
+ 2.634436 3 6 ack 40 ------- 1 3.0 0.0 4 11
- 2.634436 3 6 ack 40 ------- 1 3.0 0.0 4 11
d 2.63444 5 6 ack 40 ------- 1 3.0 0.0 4 11
d 2.63444 4 6 ack 40 ------- 1 3.0 0.0 4 11
d 2.63444 2 6 ack 40 ------- 1 3.0 0.0 4 11
d 2.63444 1 6 ack 40 ------- 1 3.0 0.0 4 11
+ 2.638852 3 6 ack 40 ------- 1 3.0 0.0 5 12
- 2.638852 3 6 ack 40 ------- 1 3.0 0.0 5 12
d 2.638856 5 6 ack 40 ------- 1 3.0 0.0 5 12
d 2.638856 4 6 ack 40 ------- 1 3.0 0.0 5 12
d 2.638856 2 6 ack 40 ------- 1 3.0 0.0 5 12
d 2.638856 1 6 ack 40 ------- 1 3.0 0.0 5 12
+ 2.643268 3 6 ack 40 ------- 1 3.0 0.0 6 13
- 2.643268 3 6 ack 40 ------- 1 3.0 0.0 6 13
d 2.643272 5 6 ack 40 ------- 1 3.0 0.0 6 13
d 2.643272 4 6 ack 40 ------- 1 3.0 0.0 6 13
d 2.643272 2 6 ack 40 ------- 1 3.0 0.0 6 13
d 2.643272 1 6 ack 40 ------- 1 3.0 0.0 6 13
r 2.860024 6 0 ack 40 ------- 1 3.0 0.0 3 10
h 2.860024 0 6 tcp 1040 ------- 1 0.0 3.0 7 14
h 2.860024 0 6 tcp 1040 ------- 1 0.0 3.0 8 15
r 2.86444 6 0 ack 40 ------- 1 3.0 0.0 4 11
h 2.86444 0 6 tcp 1040 ------- 1 0.0 3.0 9 16
h 2.86444 0 6 tcp 1040 ------- 1 0.0 3.0 10 17
r 2.868856 6 0 ack 40 ------- 1 3.0 0.0 5 12
h 2.868856 0 6 tcp 1040 ------- 1 0.0 3.0 11 18
h 2.868856 0 6 tcp 1040 ------- 1 0.0 3.0 12 19
r 2.873272 6 0 ack 40 ------- 1 3.0 0.0 6 13
h 2.873272 0 6 tcp 1040 ------- 1 0.0 3.0 13 20
h 2.873272 0 6 tcp 1040 ------- 1 0.0 3.0 14 21
+ 3.090024 0 6 tcp 1040 ------- 1 0.0 3.0 7 14
- 3.090024 0 6 tcp 1040 ------- 1 0.0 3.0 7 14
+ 3.090024 0 6 tcp 1040 ------- 1 0.0 3.0 8 15
d 3.090028 5 6 tcp 1040 ------- 1 0.0 3.0 7 14
d 3.090028 4 6 tcp 1040 ------- 1 0.0 3.0 7 14
d 3.090028 2 6 tcp 1040 ------- 1 0.0 3.0 7 14
d 3.090028 1 6 tcp 1040 ------- 1 0.0 3.0 7 14
+ 3.09444 0 6 tcp 1040 ------- 1 0.0 3.0 9 16
+ 3.09444 0 6 tcp 1040 ------- 1 0.0 3.0 10 17
- 3.09444 0 6 tcp 1040 ------- 1 0.0 3.0 8 15
d 3.094444 5 6 tcp 1040 ------- 1 0.0 3.0 8 15
d 3.094444 4 6 tcp 1040 ------- 1 0.0 3.0 8 15
d 3.094444 2 6 tcp 1040 ------- 1 0.0 3.0 8 15
d 3.094444 1 6 tcp 1040 ------- 1 0.0 3.0 8 15
+ 3.098856 0 6 tcp 1040 ------- 1 0.0 3.0 11 18
+ 3.098856 0 6 tcp 1040 ------- 1 0.0 3.0 12 19
- 3.098856 0 6 tcp 1040 ------- 1 0.0 3.0 9 16
d 3.09886 5 6 tcp 1040 ------- 1 0.0 3.0 9 16
d 3.09886 4 6 tcp 1040 ------- 1 0.0 3.0 9 16
d 3.09886 2 6 tcp 1040 ------- 1 0.0 3.0 9 16
d 3.09886 1 6 tcp 1040 ------- 1 0.0 3.0 9 16
+ 3.103272 0 6 tcp 1040 ------- 1 0.0 3.0 13 20
+ 3.103272 0 6 tcp 1040 ------- 1 0.0 3.0 14 21
- 3.103272 0 6 tcp 1040 ------- 1 0.0 3.0 10 17
d 3.103276 5 6 tcp 1040 ------- 1 0.0 3.0 10 17
d 3.103276 4 6 tcp 1040 ------- 1 0.0 3.0 10 17
d 3.103276 2 6 tcp 1040 ------- 1 0.0 3.0 10 17
d 3.103276 1 6 tcp 1040 ------- 1 0.0 3.0 10 17
- 3.107688 0 6 tcp 1040 ------- 1 0.0 3.0 11 18
d 3.107692 5 6 tcp 1040 ------- 1 0.0 3.0 11 18
d 3.107692 4 6 tcp 1040 ------- 1 0.0 3.0 11 18
d 3.107692 2 6 tcp 1040 ------- 1 0.0 3.0 11 18
d 3.107692 1 6 tcp 1040 ------- 1 0.0 3.0 11 18
- 3.112104 0 6 tcp 1040 ------- 1 0.0 3.0 12 19
d 3.112108 5 6 tcp 1040 ------- 1 0.0 3.0 12 19
d 3.112108 4 6 tcp 1040 ------- 1 0.0 3.0 12 19
d 3.112108 2 6 tcp 1040 ------- 1 0.0 3.0 12 19
d 3.112108 1 6 tcp 1040 ------- 1 0.0 3.0 12 19
- 3.11652 0 6 tcp 1040 ------- 1 0.0 3.0 13 20
d 3.116524 5 6 tcp 1040 ------- 1 0.0 3.0 13 20
d 3.116524 4 6 tcp 1040 ------- 1 0.0 3.0 13 20
d 3.116524 2 6 tcp 1040 ------- 1 0.0 3.0 13 20
d 3.116524 1 6 tcp 1040 ------- 1 0.0 3.0 13 20
- 3.120936 0 6 tcp 1040 ------- 1 0.0 3.0 14 21
d 3.12094 5 6 tcp 1040 ------- 1 0.0 3.0 14 21
d 3.12094 4 6 tcp 1040 ------- 1 0.0 3.0 14 21
d 3.12094 2 6 tcp 1040 ------- 1 0.0 3.0 14 21
d 3.12094 1 6 tcp 1040 ------- 1 0.0 3.0 14 21
r 3.320028 6 3 tcp 1040 ------- 1 0.0 3.0 7 14
h 3.320028 3 6 ack 40 ------- 1 3.0 0.0 7 22
r 3.324444 6 3 tcp 1040 ------- 1 0.0 3.0 8 15
h 3.324444 3 6 ack 40 ------- 1 3.0 0.0 8 23
r 3.32886 6 3 tcp 1040 ------- 1 0.0 3.0 9 16
h 3.32886 3 6 ack 40 ------- 1 3.0 0.0 9 24
r 3.333276 6 3 tcp 1040 ------- 1 0.0 3.0 10 17
h 3.333276 3 6 ack 40 ------- 1 3.0 0.0 10 25
r 3.337692 6 3 tcp 1040 ------- 1 0.0 3.0 11 18
h 3.337692 3 6 ack 40 ------- 1 3.0 0.0 11 26
r 3.342108 6 3 tcp 1040 ------- 1 0.0 3.0 12 19
h 3.342108 3 6 ack 40 ------- 1 3.0 0.0 12 27
r 3.346524 6 3 tcp 1040 ------- 1 0.0 3.0 13 20
h 3.346524 3 6 ack 40 ------- 1 3.0 0.0 13 28
r 3.35094 6 3 tcp 1040 ------- 1 0.0 3.0 14 21
h 3.35094 3 6 ack 40 ------- 1 3.0 0.0 14 29
+ 3.550028 3 6 ack 40 ------- 1 3.0 0.0 7 22
- 3.550028 3 6 ack 40 ------- 1 3.0 0.0 7 22
d 3.550032 5 6 ack 40 ------- 1 3.0 0.0 7 22
d 3.550032 4 6 ack 40 ------- 1 3.0 0.0 7 22
d 3.550032 2 6 ack 40 ------- 1 3.0 0.0 7 22
d 3.550032 1 6 ack 40 ------- 1 3.0 0.0 7 22
+ 3.554444 3 6 ack 40 ------- 1 3.0 0.0 8 23
- 3.554444 3 6 ack 40 ------- 1 3.0 0.0 8 23
d 3.554448 5 6 ack 40 ------- 1 3.0 0.0 8 23
d 3.554448 4 6 ack 40 ------- 1 3.0 0.0 8 23
d 3.554448 2 6 ack 40 ------- 1 3.0 0.0 8 23
d 3.554448 1 6 ack 40 ------- 1 3.0 0.0 8 23
+ 3.55886 3 6 ack 40 ------- 1 3.0 0.0 9 24
- 3.55886 3 6 ack 40 ------- 1 3.0 0.0 9 24
d 3.558864 5 6 ack 40 ------- 1 3.0 0.0 9 24
d 3.558864 4 6 ack 40 ------- 1 3.0 0.0 9 24
d 3.558864 2 6 ack 40 ------- 1 3.0 0.0 9 24
d 3.558864 1 6 ack 40 ------- 1 3.0 0.0 9 24
+ 3.563276 3 6 ack 40 ------- 1 3.0 0.0 10 25
- 3.563276 3 6 ack 40 ------- 1 3.0 0.0 10 25
d 3.56328 5 6 ack 40 ------- 1 3.0 0.0 10 25
d 3.56328 4 6 ack 40 ------- 1 3.0 0.0 10 25
d 3.56328 2 6 ack 40 ------- 1 3.0 0.0 10 25
d 3.56328 1 6 ack 40 ------- 1 3.0 0.0 10 25
+ 3.567692 3 6 ack 40 ------- 1 3.0 0.0 11 26
- 3.567692 3 6 ack 40 ------- 1 3.0 0.0 11 26
d 3.567696 5 6 ack 40 ------- 1 3.0 0.0 11 26
d 3.567696 4 6 ack 40 ------- 1 3.0 0.0 11 26
d 3.567696 2 6 ack 40 ------- 1 3.0 0.0 11 26
d 3.567696 1 6 ack 40 ------- 1 3.0 0.0 11 26
+ 3.572108 3 6 ack 40 ------- 1 3.0 0.0 12 27
- 3.572108 3 6 ack 40 ------- 1 3.0 0.0 12 27
d 3.572112 5 6 ack 40 ------- 1 3.0 0.0 12 27
d 3.572112 4 6 ack 40 ------- 1 3.0 0.0 12 27
d 3.572112 2 6 ack 40 ------- 1 3.0 0.0 12 27
d 3.572112 1 6 ack 40 ------- 1 3.0 0.0 12 27
+ 3.576524 3 6 ack 40 ------- 1 3.0 0.0 13 28
- 3.576524 3 6 ack 40 ------- 1 3.0 0.0 13 28
d 3.576528 5 6 ack 40 ------- 1 3.0 0.0 13 28
d 3.576528 4 6 ack 40 ------- 1 3.0 0.0 13 28
d 3.576528 2 6 ack 40 ------- 1 3.0 0.0 13 28
d 3.576528 1 6 ack 40 ------- 1 3.0 0.0 13 28
+ 3.58094 3 6 ack 40 ------- 1 3.0 0.0 14 29
- 3.58094 3 6 ack 40 ------- 1 3.0 0.0 14 29
d 3.580944 5 6 ack 40 ------- 1 3.0 0.0 14 29
d 3.580944 4 6 ack 40 ------- 1 3.0 0.0 14 29
d 3.580944 2 6 ack 40 ------- 1 3.0 0.0 14 29
d 3.580944 1 6 ack 40 ------- 1 3.0 0.0 14 29
r 3.780032 6 0 ack 40 ------- 1 3.0 0.0 7 22
h 3.780032 0 6 tcp 1040 ------- 1 0.0 3.0 15 30
h 3.780032 0 6 tcp 1040 ------- 1 0.0 3.0 16 31
r 3.784448 6 0 ack 40 ------- 1 3.0 0.0 8 23
h 3.784448 0 6 tcp 1040 ------- 1 0.0 3.0 17 32
h 3.784448 0 6 tcp 1040 ------- 1 0.0 3.0 18 33
r 3.788864 6 0 ack 40 ------- 1 3.0 0.0 9 24
h 3.788864 0 6 tcp 1040 ------- 1 0.0 3.0 19 34
h 3.788864 0 6 tcp 1040 ------- 1 0.0 3.0 20 35
r 3.79328 6 0 ack 40 ------- 1 3.0 0.0 10 25
h 3.79328 0 6 tcp 1040 ------- 1 0.0 3.0 21 36
h 3.79328 0 6 tcp 1040 ------- 1 0.0 3.0 22 37
r 3.797696 6 0 ack 40 ------- 1 3.0 0.0 11 26
h 3.797696 0 6 tcp 1040 ------- 1 0.0 3.0 23 38
h 3.797696 0 6 tcp 1040 ------- 1 0.0 3.0 24 39
r 3.802112 6 0 ack 40 ------- 1 3.0 0.0 12 27
h 3.802112 0 6 tcp 1040 ------- 1 0.0 3.0 25 40
h 3.802112 0 6 tcp 1040 ------- 1 0.0 3.0 26 41
r 3.806528 6 0 ack 40 ------- 1 3.0 0.0 13 28
h 3.806528 0 6 tcp 1040 ------- 1 0.0 3.0 27 42
h 3.806528 0 6 tcp 1040 ------- 1 0.0 3.0 28 43
r 3.810944 6 0 ack 40 ------- 1 3.0 0.0 14 29
h 3.810944 0 6 tcp 1040 ------- 1 0.0 3.0 29 44
h 3.810944 0 6 tcp 1040 ------- 1 0.0 3.0 30 45
+ 4.010032 0 6 tcp 1040 ------- 1 0.0 3.0 15 30
- 4.010032 0 6 tcp 1040 ------- 1 0.0 3.0 15 30
+ 4.010032 0 6 tcp 1040 ------- 1 0.0 3.0 16 31
d 4.010036 5 6 tcp 1040 ------- 1 0.0 3.0 15 30
d 4.010036 4 6 tcp 1040 ------- 1 0.0 3.0 15 30
d 4.010036 2 6 tcp 1040 ------- 1 0.0 3.0 15 30
d 4.010036 1 6 tcp 1040 ------- 1 0.0 3.0 15 30
+ 4.014448 0 6 tcp 1040 ------- 1 0.0 3.0 17 32
+ 4.014448 0 6 tcp 1040 ------- 1 0.0 3.0 18 33
- 4.014448 0 6 tcp 1040 ------- 1 0.0 3.0 16 31
d 4.014452 5 6 tcp 1040 ------- 1 0.0 3.0 16 31
d 4.014452 4 6 tcp 1040 ------- 1 0.0 3.0 16 31
d 4.014452 2 6 tcp 1040 ------- 1 0.0 3.0 16 31
d 4.014452 1 6 tcp 1040 ------- 1 0.0 3.0 16 31
+ 4.018864 0 6 tcp 1040 ------- 1 0.0 3.0 19 34
+ 4.018864 0 6 tcp 1040 ------- 1 0.0 3.0 20 35
- 4.018864 0 6 tcp 1040 ------- 1 0.0 3.0 17 32
d 4.018868 5 6 tcp 1040 ------- 1 0.0 3.0 17 32
d 4.018868 4 6 tcp 1040 ------- 1 0.0 3.0 17 32
d 4.018868 2 6 tcp 1040 ------- 1 0.0 3.0 17 32
d 4.018868 1 6 tcp 1040 ------- 1 0.0 3.0 17 32
+ 4.02328 0 6 tcp 1040 ------- 1 0.0 3.0 21 36
+ 4.02328 0 6 tcp 1040 ------- 1 0.0 3.0 22 37
- 4.02328 0 6 tcp 1040 ------- 1 0.0 3.0 18 33
d 4.023284 5 6 tcp 1040 ------- 1 0.0 3.0 18 33
d 4.023284 4 6 tcp 1040 ------- 1 0.0 3.0 18 33
d 4.023284 2 6 tcp 1040 ------- 1 0.0 3.0 18 33
d 4.023284 1 6 tcp 1040 ------- 1 0.0 3.0 18 33
+ 4.027696 0 6 tcp 1040 ------- 1 0.0 3.0 23 38
+ 4.027696 0 6 tcp 1040 ------- 1 0.0 3.0 24 39
- 4.027696 0 6 tcp 1040 ------- 1 0.0 3.0 19 34
d 4.0277 5 6 tcp 1040 ------- 1 0.0 3.0 19 34
d 4.0277 4 6 tcp 1040 ------- 1 0.0 3.0 19 34
d 4.0277 2 6 tcp 1040 ------- 1 0.0 3.0 19 34
d 4.0277 1 6 tcp 1040 ------- 1 0.0 3.0 19 34
+ 4.032112 0 6 tcp 1040 ------- 1 0.0 3.0 25 40
+ 4.032112 0 6 tcp 1040 ------- 1 0.0 3.0 26 41
- 4.032112 0 6 tcp 1040 ------- 1 0.0 3.0 20 35
d 4.032116 5 6 tcp 1040 ------- 1 0.0 3.0 20 35
d 4.032116 4 6 tcp 1040 ------- 1 0.0 3.0 20 35
d 4.032116 2 6 tcp 1040 ------- 1 0.0 3.0 20 35
d 4.032116 1 6 tcp 1040 ------- 1 0.0 3.0 20 35
+ 4.036528 0 6 tcp 1040 ------- 1 0.0 3.0 27 42
+ 4.036528 0 6 tcp 1040 ------- 1 0.0 3.0 28 43
- 4.036528 0 6 tcp 1040 ------- 1 0.0 3.0 21 36
d 4.036532 5 6 tcp 1040 ------- 1 0.0 3.0 21 36
d 4.036532 4 6 tcp 1040 ------- 1 0.0 3.0 21 36
d 4.036532 2 6 tcp 1040 ------- 1 0.0 3.0 21 36
d 4.036532 1 6 tcp 1040 ------- 1 0.0 3.0 21 36
+ 4.040944 0 6 tcp 1040 ------- 1 0.0 3.0 29 44
+ 4.040944 0 6 tcp 1040 ------- 1 0.0 3.0 30 45
- 4.040944 0 6 tcp 1040 ------- 1 0.0 3.0 22 37
d 4.040948 5 6 tcp 1040 ------- 1 0.0 3.0 22 37
d 4.040948 4 6 tcp 1040 ------- 1 0.0 3.0 22 37
d 4.040948 2 6 tcp 1040 ------- 1 0.0 3.0 22 37
d 4.040948 1 6 tcp 1040 ------- 1 0.0 3.0 22 37
- 4.04536 0 6 tcp 1040 ------- 1 0.0 3.0 23 38
d 4.045364 5 6 tcp 1040 ------- 1 0.0 3.0 23 38
d 4.045364 4 6 tcp 1040 ------- 1 0.0 3.0 23 38
d 4.045364 2 6 tcp 1040 ------- 1 0.0 3.0 23 38
d 4.045364 1 6 tcp 1040 ------- 1 0.0 3.0 23 38
- 4.049776 0 6 tcp 1040 ------- 1 0.0 3.0 24 39
d 4.04978 5 6 tcp 1040 ------- 1 0.0 3.0 24 39
d 4.04978 4 6 tcp 1040 ------- 1 0.0 3.0 24 39
d 4.04978 2 6 tcp 1040 ------- 1 0.0 3.0 24 39
d 4.04978 1 6 tcp 1040 ------- 1 0.0 3.0 24 39
- 4.054192 0 6 tcp 1040 ------- 1 0.0 3.0 25 40
d 4.054196 5 6 tcp 1040 ------- 1 0.0 3.0 25 40
d 4.054196 4 6 tcp 1040 ------- 1 0.0 3.0 25 40
d 4.054196 2 6 tcp 1040 ------- 1 0.0 3.0 25 40
d 4.054196 1 6 tcp 1040 ------- 1 0.0 3.0 25 40
- 4.058608 0 6 tcp 1040 ------- 1 0.0 3.0 26 41
d 4.058612 5 6 tcp 1040 ------- 1 0.0 3.0 26 41
d 4.058612 4 6 tcp 1040 ------- 1 0.0 3.0 26 41
d 4.058612 2 6 tcp 1040 ------- 1 0.0 3.0 26 41
d 4.058612 1 6 tcp 1040 ------- 1 0.0 3.0 26 41
- 4.063024 0 6 tcp 1040 ------- 1 0.0 3.0 27 42
d 4.063028 5 6 tcp 1040 ------- 1 0.0 3.0 27 42
d 4.063028 4 6 tcp 1040 ------- 1 0.0 3.0 27 42
d 4.063028 2 6 tcp 1040 ------- 1 0.0 3.0 27 42
d 4.063028 1 6 tcp 1040 ------- 1 0.0 3.0 27 42
- 4.06744 0 6 tcp 1040 ------- 1 0.0 3.0 28 43
d 4.067444 5 6 tcp 1040 ------- 1 0.0 3.0 28 43
d 4.067444 4 6 tcp 1040 ------- 1 0.0 3.0 28 43
d 4.067444 2 6 tcp 1040 ------- 1 0.0 3.0 28 43
d 4.067444 1 6 tcp 1040 ------- 1 0.0 3.0 28 43
- 4.071856 0 6 tcp 1040 ------- 1 0.0 3.0 29 44
d 4.07186 5 6 tcp 1040 ------- 1 0.0 3.0 29 44
d 4.07186 4 6 tcp 1040 ------- 1 0.0 3.0 29 44
d 4.07186 2 6 tcp 1040 ------- 1 0.0 3.0 29 44
d 4.07186 1 6 tcp 1040 ------- 1 0.0 3.0 29 44
- 4.076272 0 6 tcp 1040 ------- 1 0.0 3.0 30 45
d 4.076276 5 6 tcp 1040 ------- 1 0.0 3.0 30 45
d 4.076276 4 6 tcp 1040 ------- 1 0.0 3.0 30 45
d 4.076276 2 6 tcp 1040 ------- 1 0.0 3.0 30 45
d 4.076276 1 6 tcp 1040 ------- 1 0.0 3.0 30 45
r 4.240036 6 3 tcp 1040 ------- 1 0.0 3.0 15 30
h 4.240036 3 6 ack 40 ------- 1 3.0 0.0 15 46
r 4.244452 6 3 tcp 1040 ------- 1 0.0 3.0 16 31
h 4.244452 3 6 ack 40 ------- 1 3.0 0.0 16 47
r 4.248868 6 3 tcp 1040 ------- 1 0.0 3.0 17 32
h 4.248868 3 6 ack 40 ------- 1 3.0 0.0 17 48
r 4.253284 6 3 tcp 1040 ------- 1 0.0 3.0 18 33
h 4.253284 3 6 ack 40 ------- 1 3.0 0.0 18 49
r 4.2577 6 3 tcp 1040 ------- 1 0.0 3.0 19 34
h 4.2577 3 6 ack 40 ------- 1 3.0 0.0 19 50
r 4.262116 6 3 tcp 1040 ------- 1 0.0 3.0 20 35
h 4.262116 3 6 ack 40 ------- 1 3.0 0.0 20 51
r 4.266532 6 3 tcp 1040 ------- 1 0.0 3.0 21 36
h 4.266532 3 6 ack 40 ------- 1 3.0 0.0 21 52
r 4.270948 6 3 tcp 1040 ------- 1 0.0 3.0 22 37
h 4.270948 3 6 ack 40 ------- 1 3.0 0.0 22 53
r 4.275364 6 3 tcp 1040 ------- 1 0.0 3.0 23 38
h 4.275364 3 6 ack 40 ------- 1 3.0 0.0 23 54
r 4.27978 6 3 tcp 1040 ------- 1 0.0 3.0 24 39
h 4.27978 3 6 ack 40 ------- 1 3.0 0.0 24 55
r 4.284196 6 3 tcp 1040 ------- 1 0.0 3.0 25 40
h 4.284196 3 6 ack 40 ------- 1 3.0 0.0 25 56
r 4.288612 6 3 tcp 1040 ------- 1 0.0 3.0 26 41
h 4.288612 3 6 ack 40 ------- 1 3.0 0.0 26 57
r 4.293028 6 3 tcp 1040 ------- 1 0.0 3.0 27 42
h 4.293028 3 6 ack 40 ------- 1 3.0 0.0 27 58
r 4.297444 6 3 tcp 1040 ------- 1 0.0 3.0 28 43
h 4.297444 3 6 ack 40 ------- 1 3.0 0.0 28 59
r 4.30186 6 3 tcp 1040 ------- 1 0.0 3.0 29 44
h 4.30186 3 6 ack 40 ------- 1 3.0 0.0 29 60
r 4.306276 6 3 tcp 1040 ------- 1 0.0 3.0 30 45
h 4.306276 3 6 ack 40 ------- 1 3.0 0.0 30 61
+ 4.470036 3 6 ack 40 ------- 1 3.0 0.0 15 46
- 4.470036 3 6 ack 40 ------- 1 3.0 0.0 15 46
d 4.47004 5 6 ack 40 ------- 1 3.0 0.0 15 46
d 4.47004 4 6 ack 40 ------- 1 3.0 0.0 15 46
d 4.47004 2 6 ack 40 ------- 1 3.0 0.0 15 46
d 4.47004 1 6 ack 40 ------- 1 3.0 0.0 15 46
+ 4.474452 3 6 ack 40 ------- 1 3.0 0.0 16 47
- 4.474452 3 6 ack 40 ------- 1 3.0 0.0 16 47
d 4.474456 5 6 ack 40 ------- 1 3.0 0.0 16 47
d 4.474456 4 6 ack 40 ------- 1 3.0 0.0 16 47
d 4.474456 2 6 ack 40 ------- 1 3.0 0.0 16 47
d 4.474456 1 6 ack 40 ------- 1 3.0 0.0 16 47
+ 4.478868 3 6 ack 40 ------- 1 3.0 0.0 17 48
- 4.478868 3 6 ack 40 ------- 1 3.0 0.0 17 48
d 4.478872 5 6 ack 40 ------- 1 3.0 0.0 17 48
d 4.478872 4 6 ack 40 ------- 1 3.0 0.0 17 48
d 4.478872 2 6 ack 40 ------- 1 3.0 0.0 17 48
d 4.478872 1 6 ack 40 ------- 1 3.0 0.0 17 48
+ 4.483284 3 6 ack 40 ------- 1 3.0 0.0 18 49
- 4.483284 3 6 ack 40 ------- 1 3.0 0.0 18 49
d 4.483288 5 6 ack 40 ------- 1 3.0 0.0 18 49
d 4.483288 4 6 ack 40 ------- 1 3.0 0.0 18 49
d 4.483288 2 6 ack 40 ------- 1 3.0 0.0 18 49
d 4.483288 1 6 ack 40 ------- 1 3.0 0.0 18 49
+ 4.4877 3 6 ack 40 ------- 1 3.0 0.0 19 50
- 4.4877 3 6 ack 40 ------- 1 3.0 0.0 19 50
d 4.487704 5 6 ack 40 ------- 1 3.0 0.0 19 50
d 4.487704 4 6 ack 40 ------- 1 3.0 0.0 19 50
d 4.487704 2 6 ack 40 ------- 1 3.0 0.0 19 50
d 4.487704 1 6 ack 40 ------- 1 3.0 0.0 19 50
+ 4.492116 3 6 ack 40 ------- 1 3.0 0.0 20 51
- 4.492116 3 6 ack 40 ------- 1 3.0 0.0 20 51
d 4.49212 5 6 ack 40 ------- 1 3.0 0.0 20 51
d 4.49212 4 6 ack 40 ------- 1 3.0 0.0 20 51
d 4.49212 2 6 ack 40 ------- 1 3.0 0.0 20 51
d 4.49212 1 6 ack 40 ------- 1 3.0 0.0 20 51
+ 4.496532 3 6 ack 40 ------- 1 3.0 0.0 21 52
- 4.496532 3 6 ack 40 ------- 1 3.0 0.0 21 52
d 4.496536 5 6 ack 40 ------- 1 3.0 0.0 21 52
d 4.496536 4 6 ack 40 ------- 1 3.0 0.0 21 52
d 4.496536 2 6 ack 40 ------- 1 3.0 0.0 21 52
d 4.496536 1 6 ack 40 ------- 1 3.0 0.0 21 52
+ 4.500948 3 6 ack 40 ------- 1 3.0 0.0 22 53
- 4.500948 3 6 ack 40 ------- 1 3.0 0.0 22 53
d 4.500952 5 6 ack 40 ------- 1 3.0 0.0 22 53
d 4.500952 4 6 ack 40 ------- 1 3.0 0.0 22 53
d 4.500952 2 6 ack 40 ------- 1 3.0 0.0 22 53
d 4.500952 1 6 ack 40 ------- 1 3.0 0.0 22 53
+ 4.505364 3 6 ack 40 ------- 1 3.0 0.0 23 54
- 4.505364 3 6 ack 40 ------- 1 3.0 0.0 23 54
d 4.505368 5 6 ack 40 ------- 1 3.0 0.0 23 54
d 4.505368 4 6 ack 40 ------- 1 3.0 0.0 23 54
d 4.505368 2 6 ack 40 ------- 1 3.0 0.0 23 54
d 4.505368 1 6 ack 40 ------- 1 3.0 0.0 23 54
+ 4.50978 3 6 ack 40 ------- 1 3.0 0.0 24 55
- 4.50978 3 6 ack 40 ------- 1 3.0 0.0 24 55
d 4.509784 5 6 ack 40 ------- 1 3.0 0.0 24 55
d 4.509784 4 6 ack 40 ------- 1 3.0 0.0 24 55
d 4.509784 2 6 ack 40 ------- 1 3.0 0.0 24 55
d 4.509784 1 6 ack 40 ------- 1 3.0 0.0 24 55
+ 4.514196 3 6 ack 40 ------- 1 3.0 0.0 25 56
- 4.514196 3 6 ack 40 ------- 1 3.0 0.0 25 56
d 4.5142 5 6 ack 40 ------- 1 3.0 0.0 25 56
d 4.5142 4 6 ack 40 ------- 1 3.0 0.0 25 56
d 4.5142 2 6 ack 40 ------- 1 3.0 0.0 25 56
d 4.5142 1 6 ack 40 ------- 1 3.0 0.0 25 56
+ 4.518612 3 6 ack 40 ------- 1 3.0 0.0 26 57
- 4.518612 3 6 ack 40 ------- 1 3.0 0.0 26 57
d 4.518616 5 6 ack 40 ------- 1 3.0 0.0 26 57
d 4.518616 4 6 ack 40 ------- 1 3.0 0.0 26 57
d 4.518616 2 6 ack 40 ------- 1 3.0 0.0 26 57
d 4.518616 1 6 ack 40 ------- 1 3.0 0.0 26 57
+ 4.523028 3 6 ack 40 ------- 1 3.0 0.0 27 58
- 4.523028 3 6 ack 40 ------- 1 3.0 0.0 27 58
d 4.523032 5 6 ack 40 ------- 1 3.0 0.0 27 58
d 4.523032 4 6 ack 40 ------- 1 3.0 0.0 27 58
d 4.523032 2 6 ack 40 ------- 1 3.0 0.0 27 58
d 4.523032 1 6 ack 40 ------- 1 3.0 0.0 27 58
+ 4.527444 3 6 ack 40 ------- 1 3.0 0.0 28 59
- 4.527444 3 6 ack 40 ------- 1 3.0 0.0 28 59
d 4.527448 5 6 ack 40 ------- 1 3.0 0.0 28 59
d 4.527448 4 6 ack 40 ------- 1 3.0 0.0 28 59
d 4.527448 2 6 ack 40 ------- 1 3.0 0.0 28 59
d 4.527448 1 6 ack 40 ------- 1 3.0 0.0 28 59
+ 4.53186 3 6 ack 40 ------- 1 3.0 0.0 29 60
- 4.53186 3 6 ack 40 ------- 1 3.0 0.0 29 60
d 4.531864 5 6 ack 40 ------- 1 3.0 0.0 29 60
d 4.531864 4 6 ack 40 ------- 1 3.0 0.0 29 60
d 4.531864 2 6 ack 40 ------- 1 3.0 0.0 29 60
d 4.531864 1 6 ack 40 ------- 1 3.0 0.0 29 60
+ 4.536276 3 6 ack 40 ------- 1 3.0 0.0 30 61
- 4.536276 3 6 ack 40 ------- 1 3.0 0.0 30 61
d 4.53628 5 6 ack 40 ------- 1 3.0 0.0 30 61
d 4.53628 4 6 ack 40 ------- 1 3.0 0.0 30 61
d 4.53628 2 6 ack 40 ------- 1 3.0 0.0 30 61
d 4.53628 1 6 ack 40 ------- 1 3.0 0.0 30 61
r 4.70004 6 0 ack 40 ------- 1 3.0 0.0 15 46
r 4.704456 6 0 ack 40 ------- 1 3.0 0.0 16 47
r 4.708872 6 0 ack 40 ------- 1 3.0 0.0 17 48
r 4.713288 6 0 ack 40 ------- 1 3.0 0.0 18 49
r 4.717704 6 0 ack 40 ------- 1 3.0 0.0 19 50
r 4.72212 6 0 ack 40 ------- 1 3.0 0.0 20 51
r 4.726536 6 0 ack 40 ------- 1 3.0 0.0 21 52
r 4.730952 6 0 ack 40 ------- 1 3.0 0.0 22 53
r 4.735368 6 0 ack 40 ------- 1 3.0 0.0 23 54
r 4.739784 6 0 ack 40 ------- 1 3.0 0.0 24 55
r 4.7442 6 0 ack 40 ------- 1 3.0 0.0 25 56
r 4.748616 6 0 ack 40 ------- 1 3.0 0.0 26 57
r 4.753032 6 0 ack 40 ------- 1 3.0 0.0 27 58
r 4.757448 6 0 ack 40 ------- 1 3.0 0.0 28 59
r 4.761864 6 0 ack 40 ------- 1 3.0 0.0 29 60
r 4.76628 6 0 ack 40 ------- 1 3.0 0.0 30 61
