V -t * -v 1.0a5 -a 0
A -t * -n 1 -p 0 -o 0x7fffffff -c 30 -a 1
A -t * -h 1 -m 1073741823 -s 0
c -t * -i 1 -n Orange
n -t * -a 4 -s 4 -S UP -v circle -c black -i black
n -t * -a 0 -s 0 -S UP -v circle -c black -i black
n -t * -a 5 -s 5 -S UP -v circle -c black -i black
n -t * -a 1 -s 1 -S UP -v circle -c black -i black
n -t * -a 2 -s 2 -S UP -v circle -c black -i black
n -t * -a 3 -s 3 -S UP -v circle -c black -i black
X -t * -n 6 -r 0.5Mb -D 230ms -o left
L -t * -s 6 -d 0 -o up
L -t * -s 6 -d 1 -o down
L -t * -s 6 -d 2 -o up
L -t * -s 6 -d 3 -o down
L -t * -s 6 -d 4 -o up
L -t * -s 6 -d 5 -o down
h -t 0.1 -s 0 -d 6 -p cbr -e 1000 -c 1 -i 0 -a 1 -x {0.0 3.0 0 ------- null}
h -t 0.11 -s 0 -d 6 -p cbr -e 1000 -c 1 -i 1 -a 1 -x {0.0 3.0 1 ------- null}
h -t 0.12 -s 0 -d 6 -p cbr -e 1000 -c 1 -i 2 -a 1 -x {0.0 3.0 2 ------- null}
h -t 0.13 -s 0 -d 6 -p cbr -e 1000 -c 1 -i 3 -a 1 -x {0.0 3.0 3 ------- null}
h -t 0.14 -s 0 -d 6 -p cbr -e 1000 -c 1 -i 4 -a 1 -x {0.0 3.0 4 ------- null}
h -t 0.15 -s 0 -d 6 -p cbr -e 1000 -c 1 -i 5 -a 1 -x {0.0 3.0 5 ------- null}
h -t 0.16 -s 0 -d 6 -p cbr -e 1000 -c 1 -i 6 -a 1 -x {0.0 3.0 6 ------- null}
h -t 0.17 -s 0 -d 6 -p cbr -e 1000 -c 1 -i 7 -a 1 -x {0.0 3.0 7 ------- null}
h -t 0.18 -s 0 -d 6 -p cbr -e 1000 -c 1 -i 8 -a 1 -x {0.0 3.0 8 ------- null}
h -t 0.19 -s 0 -d 6 -p cbr -e 1000 -c 1 -i 9 -a 1 -x {0.0 3.0 9 ------- null}
h -t 0.2 -s 0 -d 6 -p cbr -e 1000 -c 1 -i 10 -a 1 -x {0.0 3.0 10 ------- null}
h -t 0.21 -s 0 -d 6 -p cbr -e 1000 -c 1 -i 11 -a 1 -x {0.0 3.0 11 ------- null}
h -t 0.22 -s 0 -d 6 -p cbr -e 1000 -c 1 -i 12 -a 1 -x {0.0 3.0 12 ------- null}
h -t 0.23 -s 0 -d 6 -p cbr -e 1000 -c 1 -i 13 -a 1 -x {0.0 3.0 13 ------- null}
h -t 0.24 -s 0 -d 6 -p cbr -e 1000 -c 1 -i 14 -a 1 -x {0.0 3.0 14 ------- null}
h -t 0.25 -s 0 -d 6 -p cbr -e 1000 -c 1 -i 15 -a 1 -x {0.0 3.0 15 ------- null}
h -t 0.26 -s 0 -d 6 -p cbr -e 1000 -c 1 -i 16 -a 1 -x {0.0 3.0 16 ------- null}
h -t 0.27 -s 0 -d 6 -p cbr -e 1000 -c 1 -i 17 -a 1 -x {0.0 3.0 17 ------- null}
h -t 0.28 -s 0 -d 6 -p cbr -e 1000 -c 1 -i 18 -a 1 -x {0.0 3.0 18 ------- null}
h -t 0.29 -s 0 -d 6 -p cbr -e 1000 -c 1 -i 19 -a 1 -x {0.0 3.0 19 ------- null}
h -t 0.3 -s 0 -d 6 -p cbr -e 1000 -c 1 -i 20 -a 1 -x {0.0 3.0 20 ------- null}
h -t 0.31 -s 0 -d 6 -p cbr -e 1000 -c 1 -i 21 -a 1 -x {0.0 3.0 21 ------- null}
h -t 0.32 -s 0 -d 6 -p cbr -e 1000 -c 1 -i 22 -a 1 -x {0.0 3.0 22 ------- null}
+ -t 0.33 -s 0 -d 6 -p cbr -e 1000 -c 1 -i 0 -a 1 -x {0.0 3.0 0 ------- null}
- -t 0.33 -s 0 -d 6 -p cbr -e 1000 -c 1 -i 0 -a 1 -x {0.0 3.0 0 ------- null}
h -t 0.33 -s 0 -d 6 -p cbr -e 1000 -c 1 -i 0 -a 1 -x {0.0 3.0 -1 ------- null}
h -t 0.33 -s 0 -d 6 -p cbr -e 1000 -c 1 -i 23 -a 1 -x {0.0 3.0 23 ------- null}
d -t 0.330004 -s 5 -d 6 -p cbr -e 1000 -c 1 -i 0 -a 1 -x {0.0 3.0 0 ------- null}
d -t 0.330004 -s 4 -d 6 -p cbr -e 1000 -c 1 -i 0 -a 1 -x {0.0 3.0 0 ------- null}
d -t 0.330004 -s 2 -d 6 -p cbr -e 1000 -c 1 -i 0 -a 1 -x {0.0 3.0 0 ------- null}
d -t 0.330004 -s 1 -d 6 -p cbr -e 1000 -c 1 -i 0 -a 1 -x {0.0 3.0 0 ------- null}
+ -t 0.34 -s 0 -d 6 -p cbr -e 1000 -c 1 -i 1 -a 1 -x {0.0 3.0 1 ------- null}
- -t 0.34 -s 0 -d 6 -p cbr -e 1000 -c 1 -i 1 -a 1 -x {0.0 3.0 1 ------- null}
h -t 0.34 -s 0 -d 6 -p cbr -e 1000 -c 1 -i 1 -a 1 -x {0.0 3.0 -1 ------- null}
h -t 0.34 -s 0 -d 6 -p cbr -e 1000 -c 1 -i 24 -a 1 -x {0.0 3.0 24 ------- null}
d -t 0.340004 -s 5 -d 6 -p cbr -e 1000 -c 1 -i 1 -a 1 -x {0.0 3.0 1 ------- null}
d -t 0.340004 -s 4 -d 6 -p cbr -e 1000 -c 1 -i 1 -a 1 -x {0.0 3.0 1 ------- null}
d -t 0.340004 -s 2 -d 6 -p cbr -e 1000 -c 1 -i 1 -a 1 -x {0.0 3.0 1 ------- null}
d -t 0.340004 -s 1 -d 6 -p cbr -e 1000 -c 1 -i 1 -a 1 -x {0.0 3.0 1 ------- null}
+ -t 0.35 -s 0 -d 6 -p cbr -e 1000 -c 1 -i 2 -a 1 -x {0.0 3.0 2 ------- null}
- -t 0.35 -s 0 -d 6 -p cbr -e 1000 -c 1 -i 2 -a 1 -x {0.0 3.0 2 ------- null}
h -t 0.35 -s 0 -d 6 -p cbr -e 1000 -c 1 -i 2 -a 1 -x {0.0 3.0 -1 ------- null}
h -t 0.35 -s 0 -d 6 -p cbr -e 1000 -c 1 -i 25 -a 1 -x {0.0 3.0 25 ------- null}
d -t 0.350004 -s 5 -d 6 -p cbr -e 1000 -c 1 -i 2 -a 1 -x {0.0 3.0 2 ------- null}
d -t 0.350004 -s 4 -d 6 -p cbr -e 1000 -c 1 -i 2 -a 1 -x {0.0 3.0 2 ------- null}
d -t 0.350004 -s 2 -d 6 -p cbr -e 1000 -c 1 -i 2 -a 1 -x {0.0 3.0 2 ------- null}
d -t 0.350004 -s 1 -d 6 -p cbr -e 1000 -c 1 -i 2 -a 1 -x {0.0 3.0 2 ------- null}
+ -t 0.36 -s 0 -d 6 -p cbr -e 1000 -c 1 -i 3 -a 1 -x {0.0 3.0 3 ------- null}
- -t 0.36 -s 0 -d 6 -p cbr -e 1000 -c 1 -i 3 -a 1 -x {0.0 3.0 3 ------- null}
h -t 0.36 -s 0 -d 6 -p cbr -e 1000 -c 1 -i 3 -a 1 -x {0.0 3.0 -1 ------- null}
h -t 0.36 -s 0 -d 6 -p cbr -e 1000 -c 1 -i 26 -a 1 -x {0.0 3.0 26 ------- null}
d -t 0.360004 -s 5 -d 6 -p cbr -e 1000 -c 1 -i 3 -a 1 -x {0.0 3.0 3 ------- null}
d -t 0.360004 -s 4 -d 6 -p cbr -e 1000 -c 1 -i 3 -a 1 -x {0.0 3.0 3 ------- null}
d -t 0.360004 -s 2 -d 6 -p cbr -e 1000 -c 1 -i 3 -a 1 -x {0.0 3.0 3 ------- null}
d -t 0.360004 -s 1 -d 6 -p cbr -e 1000 -c 1 -i 3 -a 1 -x {0.0 3.0 3 ------- null}
+ -t 0.37 -s 0 -d 6 -p cbr -e 1000 -c 1 -i 4 -a 1 -x {0.0 3.0 4 ------- null}
- -t 0.37 -s 0 -d 6 -p cbr -e 1000 -c 1 -i 4 -a 1 -x {0.0 3.0 4 ------- null}
h -t 0.37 -s 0 -d 6 -p cbr -e 1000 -c 1 -i 4 -a 1 -x {0.0 3.0 -1 ------- null}
h -t 0.37 -s 0 -d 6 -p cbr -e 1000 -c 1 -i 27 -a 1 -x {0.0 3.0 27 ------- null}
d -t 0.370004 -s 5 -d 6 -p cbr -e 1000 -c 1 -i 4 -a 1 -x {0.0 3.0 4 ------- null}
d -t 0.370004 -s 4 -d 6 -p cbr -e 1000 -c 1 -i 4 -a 1 -x {0.0 3.0 4 ------- null}
d -t 0.370004 -s 2 -d 6 -p cbr -e 1000 -c 1 -i 4 -a 1 -x {0.0 3.0 4 ------- null}
d -t 0.370004 -s 1 -d 6 -p cbr -e 1000 -c 1 -i 4 -a 1 -x {0.0 3.0 4 ------- null}
+ -t 0.38 -s 0 -d 6 -p cbr -e 1000 -c 1 -i 5 -a 1 -x {0.0 3.0 5 ------- null}
- -t 0.38 -s 0 -d 6 -p cbr -e 1000 -c 1 -i 5 -a 1 -x {0.0 3.0 5 ------- null}
h -t 0.38 -s 0 -d 6 -p cbr -e 1000 -c 1 -i 5 -a 1 -x {0.0 3.0 -1 ------- null}
h -t 0.38 -s 0 -d 6 -p cbr -e 1000 -c 1 -i 28 -a 1 -x {0.0 3.0 28 ------- null}
d -t 0.380004 -s 5 -d 6 -p cbr -e 1000 -c 1 -i 5 -a 1 -x {0.0 3.0 5 ------- null}
d -t 0.380004 -s 4 -d 6 -p cbr -e 1000 -c 1 -i 5 -a 1 -x {0.0 3.0 5 ------- null}
d -t 0.380004 -s 2 -d 6 -p cbr -e 1000 -c 1 -i 5 -a 1 -x {0.0 3.0 5 ------- null}
d -t 0.380004 -s 1 -d 6 -p cbr -e 1000 -c 1 -i 5 -a 1 -x {0.0 3.0 5 ------- null}
+ -t 0.39 -s 0 -d 6 -p cbr -e 1000 -c 1 -i 6 -a 1 -x {0.0 3.0 6 ------- null}
- -t 0.39 -s 0 -d 6 -p cbr -e 1000 -c 1 -i 6 -a 1 -x {0.0 3.0 6 ------- null}
h -t 0.39 -s 0 -d 6 -p cbr -e 1000 -c 1 -i 6 -a 1 -x {0.0 3.0 -1 ------- null}
h -t 0.39 -s 0 -d 6 -p cbr -e 1000 -c 1 -i 29 -a 1 -x {0.0 3.0 29 ------- null}
d -t 0.390004 -s 5 -d 6 -p cbr -e 1000 -c 1 -i 6 -a 1 -x {0.0 3.0 6 ------- null}
d -t 0.390004 -s 4 -d 6 -p cbr -e 1000 -c 1 -i 6 -a 1 -x {0.0 3.0 6 ------- null}
d -t 0.390004 -s 2 -d 6 -p cbr -e 1000 -c 1 -i 6 -a 1 -x {0.0 3.0 6 ------- null}
d -t 0.390004 -s 1 -d 6 -p cbr -e 1000 -c 1 -i 6 -a 1 -x {0.0 3.0 6 ------- null}
+ -t 0.4 -s 0 -d 6 -p cbr -e 1000 -c 1 -i 7 -a 1 -x {0.0 3.0 7 ------- null}
- -t 0.4 -s 0 -d 6 -p cbr -e 1000 -c 1 -i 7 -a 1 -x {0.0 3.0 7 ------- null}
h -t 0.4 -s 0 -d 6 -p cbr -e 1000 -c 1 -i 7 -a 1 -x {0.0 3.0 -1 ------- null}
h -t 0.4 -s 0 -d 6 -p cbr -e 1000 -c 1 -i 30 -a 1 -x {0.0 3.0 30 ------- null}
d -t 0.400004 -s 5 -d 6 -p cbr -e 1000 -c 1 -i 7 -a 1 -x {0.0 3.0 7 ------- null}
d -t 0.400004 -s 4 -d 6 -p cbr -e 1000 -c 1 -i 7 -a 1 -x {0.0 3.0 7 ------- null}
d -t 0.400004 -s 2 -d 6 -p cbr -e 1000 -c 1 -i 7 -a 1 -x {0.0 3.0 7 ------- null}
d -t 0.400004 -s 1 -d 6 -p cbr -e 1000 -c 1 -i 7 -a 1 -x {0.0 3.0 7 ------- null}
+ -t 0.41 -s 0 -d 6 -p cbr -e 1000 -c 1 -i 8 -a 1 -x {0.0 3.0 8 ------- null}
- -t 0.41 -s 0 -d 6 -p cbr -e 1000 -c 1 -i 8 -a 1 -x {0.0 3.0 8 ------- null}
h -t 0.41 -s 0 -d 6 -p cbr -e 1000 -c 1 -i 8 -a 1 -x {0.0 3.0 -1 ------- null}
h -t 0.41 -s 0 -d 6 -p cbr -e 1000 -c 1 -i 31 -a 1 -x {0.0 3.0 31 ------- null}
d -t 0.410004 -s 5 -d 6 -p cbr -e 1000 -c 1 -i 8 -a 1 -x {0.0 3.0 8 ------- null}
d -t 0.410004 -s 4 -d 6 -p cbr -e 1000 -c 1 -i 8 -a 1 -x {0.0 3.0 8 ------- null}
d -t 0.410004 -s 2 -d 6 -p cbr -e 1000 -c 1 -i 8 -a 1 -x {0.0 3.0 8 ------- null}
d -t 0.410004 -s 1 -d 6 -p cbr -e 1000 -c 1 -i 8 -a 1 -x {0.0 3.0 8 ------- null}
+ -t 0.42 -s 0 -d 6 -p cbr -e 1000 -c 1 -i 9 -a 1 -x {0.0 3.0 9 ------- null}
- -t 0.42 -s 0 -d 6 -p cbr -e 1000 -c 1 -i 9 -a 1 -x {0.0 3.0 9 ------- null}
h -t 0.42 -s 0 -d 6 -p cbr -e 1000 -c 1 -i 9 -a 1 -x {0.0 3.0 -1 ------- null}
h -t 0.42 -s 0 -d 6 -p cbr -e 1000 -c 1 -i 32 -a 1 -x {0.0 3.0 32 ------- null}
d -t 0.420004 -s 5 -d 6 -p cbr -e 1000 -c 1 -i 9 -a 1 -x {0.0 3.0 9 ------- null}
d -t 0.420004 -s 4 -d 6 -p cbr -e 1000 -c 1 -i 9 -a 1 -x {0.0 3.0 9 ------- null}
d -t 0.420004 -s 2 -d 6 -p cbr -e 1000 -c 1 -i 9 -a 1 -x {0.0 3.0 9 ------- null}
d -t 0.420004 -s 1 -d 6 -p cbr -e 1000 -c 1 -i 9 -a 1 -x {0.0 3.0 9 ------- null}
+ -t 0.43 -s 0 -d 6 -p cbr -e 1000 -c 1 -i 10 -a 1 -x {0.0 3.0 10 ------- null}
- -t 0.43 -s 0 -d 6 -p cbr -e 1000 -c 1 -i 10 -a 1 -x {0.0 3.0 10 ------- null}
h -t 0.43 -s 0 -d 6 -p cbr -e 1000 -c 1 -i 10 -a 1 -x {0.0 3.0 -1 ------- null}
h -t 0.43 -s 0 -d 6 -p cbr -e 1000 -c 1 -i 33 -a 1 -x {0.0 3.0 33 ------- null}
d -t 0.430004 -s 5 -d 6 -p cbr -e 1000 -c 1 -i 10 -a 1 -x {0.0 3.0 10 ------- null}
d -t 0.430004 -s 4 -d 6 -p cbr -e 1000 -c 1 -i 10 -a 1 -x {0.0 3.0 10 ------- null}
d -t 0.430004 -s 2 -d 6 -p cbr -e 1000 -c 1 -i 10 -a 1 -x {0.0 3.0 10 ------- null}
d -t 0.430004 -s 1 -d 6 -p cbr -e 1000 -c 1 -i 10 -a 1 -x {0.0 3.0 10 ------- null}
+ -t 0.44 -s 0 -d 6 -p cbr -e 1000 -c 1 -i 11 -a 1 -x {0.0 3.0 11 ------- null}
- -t 0.44 -s 0 -d 6 -p cbr -e 1000 -c 1 -i 11 -a 1 -x {0.0 3.0 11 ------- null}
h -t 0.44 -s 0 -d 6 -p cbr -e 1000 -c 1 -i 11 -a 1 -x {0.0 3.0 -1 ------- null}
h -t 0.44 -s 0 -d 6 -p cbr -e 1000 -c 1 -i 34 -a 1 -x {0.0 3.0 34 ------- null}
d -t 0.440004 -s 5 -d 6 -p cbr -e 1000 -c 1 -i 11 -a 1 -x {0.0 3.0 11 ------- null}
d -t 0.440004 -s 4 -d 6 -p cbr -e 1000 -c 1 -i 11 -a 1 -x {0.0 3.0 11 ------- null}
d -t 0.440004 -s 2 -d 6 -p cbr -e 1000 -c 1 -i 11 -a 1 -x {0.0 3.0 11 ------- null}
d -t 0.440004 -s 1 -d 6 -p cbr -e 1000 -c 1 -i 11 -a 1 -x {0.0 3.0 11 ------- null}
+ -t 0.45 -s 0 -d 6 -p cbr -e 1000 -c 1 -i 12 -a 1 -x {0.0 3.0 12 ------- null}
- -t 0.45 -s 0 -d 6 -p cbr -e 1000 -c 1 -i 12 -a 1 -x {0.0 3.0 12 ------- null}
h -t 0.45 -s 0 -d 6 -p cbr -e 1000 -c 1 -i 12 -a 1 -x {0.0 3.0 -1 ------- null}
h -t 0.45 -s 0 -d 6 -p cbr -e 1000 -c 1 -i 35 -a 1 -x {0.0 3.0 35 ------- null}
d -t 0.450004 -s 5 -d 6 -p cbr -e 1000 -c 1 -i 12 -a 1 -x {0.0 3.0 12 ------- null}
d -t 0.450004 -s 4 -d 6 -p cbr -e 1000 -c 1 -i 12 -a 1 -x {0.0 3.0 12 ------- null}
d -t 0.450004 -s 2 -d 6 -p cbr -e 1000 -c 1 -i 12 -a 1 -x {0.0 3.0 12 ------- null}
d -t 0.450004 -s 1 -d 6 -p cbr -e 1000 -c 1 -i 12 -a 1 -x {0.0 3.0 12 ------- null}
+ -t 0.46 -s 0 -d 6 -p cbr -e 1000 -c 1 -i 13 -a 1 -x {0.0 3.0 13 ------- null}
- -t 0.46 -s 0 -d 6 -p cbr -e 1000 -c 1 -i 13 -a 1 -x {0.0 3.0 13 ------- null}
h -t 0.46 -s 0 -d 6 -p cbr -e 1000 -c 1 -i 13 -a 1 -x {0.0 3.0 -1 ------- null}
h -t 0.46 -s 0 -d 6 -p cbr -e 1000 -c 1 -i 36 -a 1 -x {0.0 3.0 36 ------- null}
d -t 0.460004 -s 5 -d 6 -p cbr -e 1000 -c 1 -i 13 -a 1 -x {0.0 3.0 13 ------- null}
d -t 0.460004 -s 4 -d 6 -p cbr -e 1000 -c 1 -i 13 -a 1 -x {0.0 3.0 13 ------- null}
d -t 0.460004 -s 2 -d 6 -p cbr -e 1000 -c 1 -i 13 -a 1 -x {0.0 3.0 13 ------- null}
d -t 0.460004 -s 1 -d 6 -p cbr -e 1000 -c 1 -i 13 -a 1 -x {0.0 3.0 13 ------- null}
+ -t 0.47 -s 0 -d 6 -p cbr -e 1000 -c 1 -i 14 -a 1 -x {0.0 3.0 14 ------- null}
- -t 0.47 -s 0 -d 6 -p cbr -e 1000 -c 1 -i 14 -a 1 -x {0.0 3.0 14 ------- null}
h -t 0.47 -s 0 -d 6 -p cbr -e 1000 -c 1 -i 14 -a 1 -x {0.0 3.0 -1 ------- null}
h -t 0.47 -s 0 -d 6 -p cbr -e 1000 -c 1 -i 37 -a 1 -x {0.0 3.0 37 ------- null}
d -t 0.470004 -s 5 -d 6 -p cbr -e 1000 -c 1 -i 14 -a 1 -x {0.0 3.0 14 ------- null}
d -t 0.470004 -s 4 -d 6 -p cbr -e 1000 -c 1 -i 14 -a 1 -x {0.0 3.0 14 ------- null}
d -t 0.470004 -s 2 -d 6 -p cbr -e 1000 -c 1 -i 14 -a 1 -x {0.0 3.0 14 ------- null}
d -t 0.470004 -s 1 -d 6 -p cbr -e 1000 -c 1 -i 14 -a 1 -x {0.0 3.0 14 ------- null}
+ -t 0.48 -s 0 -d 6 -p cbr -e 1000 -c 1 -i 15 -a 1 -x {0.0 3.0 15 ------- null}
- -t 0.48 -s 0 -d 6 -p cbr -e 1000 -c 1 -i 15 -a 1 -x {0.0 3.0 15 ------- null}
h -t 0.48 -s 0 -d 6 -p cbr -e 1000 -c 1 -i 15 -a 1 -x {0.0 3.0 -1 ------- null}
h -t 0.48 -s 0 -d 6 -p cbr -e 1000 -c 1 -i 38 -a 1 -x {0.0 3.0 38 ------- null}
d -t 0.480004 -s 5 -d 6 -p cbr -e 1000 -c 1 -i 15 -a 1 -x {0.0 3.0 15 ------- null}
d -t 0.480004 -s 4 -d 6 -p cbr -e 1000 -c 1 -i 15 -a 1 -x {0.0 3.0 15 ------- null}
d -t 0.480004 -s 2 -d 6 -p cbr -e 1000 -c 1 -i 15 -a 1 -x {0.0 3.0 15 ------- null}
d -t 0.480004 -s 1 -d 6 -p cbr -e 1000 -c 1 -i 15 -a 1 -x {0.0 3.0 15 ------- null}
+ -t 0.49 -s 0 -d 6 -p cbr -e 1000 -c 1 -i 16 -a 1 -x {0.0 3.0 16 ------- null}
- -t 0.49 -s 0 -d 6 -p cbr -e 1000 -c 1 -i 16 -a 1 -x {0.0 3.0 16 ------- null}
h -t 0.49 -s 0 -d 6 -p cbr -e 1000 -c 1 -i 16 -a 1 -x {0.0 3.0 -1 ------- null}
h -t 0.49 -s 0 -d 6 -p cbr -e 1000 -c 1 -i 39 -a 1 -x {0.0 3.0 39 ------- null}
d -t 0.490004 -s 5 -d 6 -p cbr -e 1000 -c 1 -i 16 -a 1 -x {0.0 3.0 16 ------- null}
d -t 0.490004 -s 4 -d 6 -p cbr -e 1000 -c 1 -i 16 -a 1 -x {0.0 3.0 16 ------- null}
d -t 0.490004 -s 2 -d 6 -p cbr -e 1000 -c 1 -i 16 -a 1 -x {0.0 3.0 16 ------- null}
d -t 0.490004 -s 1 -d 6 -p cbr -e 1000 -c 1 -i 16 -a 1 -x {0.0 3.0 16 ------- null}
+ -t 0.5 -s 0 -d 6 -p cbr -e 1000 -c 1 -i 17 -a 1 -x {0.0 3.0 17 ------- null}
- -t 0.5 -s 0 -d 6 -p cbr -e 1000 -c 1 -i 17 -a 1 -x {0.0 3.0 17 ------- null}
h -t 0.5 -s 0 -d 6 -p cbr -e 1000 -c 1 -i 17 -a 1 -x {0.0 3.0 -1 ------- null}
h -t 0.5 -s 0 -d 6 -p cbr -e 1000 -c 1 -i 40 -a 1 -x {0.0 3.0 40 ------- null}
d -t 0.500004 -s 5 -d 6 -p cbr -e 1000 -c 1 -i 17 -a 1 -x {0.0 3.0 17 ------- null}
d -t 0.500004 -s 4 -d 6 -p cbr -e 1000 -c 1 -i 17 -a 1 -x {0.0 3.0 17 ------- null}
d -t 0.500004 -s 2 -d 6 -p cbr -e 1000 -c 1 -i 17 -a 1 -x {0.0 3.0 17 ------- null}
d -t 0.500004 -s 1 -d 6 -p cbr -e 1000 -c 1 -i 17 -a 1 -x {0.0 3.0 17 ------- null}
+ -t 0.51 -s 0 -d 6 -p cbr -e 1000 -c 1 -i 18 -a 1 -x {0.0 3.0 18 ------- null}
- -t 0.51 -s 0 -d 6 -p cbr -e 1000 -c 1 -i 18 -a 1 -x {0.0 3.0 18 ------- null}
h -t 0.51 -s 0 -d 6 -p cbr -e 1000 -c 1 -i 18 -a 1 -x {0.0 3.0 -1 ------- null}
h -t 0.51 -s 0 -d 6 -p cbr -e 1000 -c 1 -i 41 -a 1 -x {0.0 3.0 41 ------- null}
d -t 0.510004 -s 5 -d 6 -p cbr -e 1000 -c 1 -i 18 -a 1 -x {0.0 3.0 18 ------- null}
d -t 0.510004 -s 4 -d 6 -p cbr -e 1000 -c 1 -i 18 -a 1 -x {0.0 3.0 18 ------- null}
d -t 0.510004 -s 2 -d 6 -p cbr -e 1000 -c 1 -i 18 -a 1 -x {0.0 3.0 18 ------- null}
d -t 0.510004 -s 1 -d 6 -p cbr -e 1000 -c 1 -i 18 -a 1 -x {0.0 3.0 18 ------- null}
+ -t 0.52 -s 0 -d 6 -p cbr -e 1000 -c 1 -i 19 -a 1 -x {0.0 3.0 19 ------- null}
- -t 0.52 -s 0 -d 6 -p cbr -e 1000 -c 1 -i 19 -a 1 -x {0.0 3.0 19 ------- null}
h -t 0.52 -s 0 -d 6 -p cbr -e 1000 -c 1 -i 19 -a 1 -x {0.0 3.0 -1 ------- null}
h -t 0.52 -s 0 -d 6 -p cbr -e 1000 -c 1 -i 42 -a 1 -x {0.0 3.0 42 ------- null}
d -t 0.520004 -s 5 -d 6 -p cbr -e 1000 -c 1 -i 19 -a 1 -x {0.0 3.0 19 ------- null}
d -t 0.520004 -s 4 -d 6 -p cbr -e 1000 -c 1 -i 19 -a 1 -x {0.0 3.0 19 ------- null}
d -t 0.520004 -s 2 -d 6 -p cbr -e 1000 -c 1 -i 19 -a 1 -x {0.0 3.0 19 ------- null}
d -t 0.520004 -s 1 -d 6 -p cbr -e 1000 -c 1 -i 19 -a 1 -x {0.0 3.0 19 ------- null}
+ -t 0.53 -s 0 -d 6 -p cbr -e 1000 -c 1 -i 20 -a 1 -x {0.0 3.0 20 ------- null}
- -t 0.53 -s 0 -d 6 -p cbr -e 1000 -c 1 -i 20 -a 1 -x {0.0 3.0 20 ------- null}
h -t 0.53 -s 0 -d 6 -p cbr -e 1000 -c 1 -i 20 -a 1 -x {0.0 3.0 -1 ------- null}
h -t 0.53 -s 0 -d 6 -p cbr -e 1000 -c 1 -i 43 -a 1 -x {0.0 3.0 43 ------- null}
d -t 0.530004 -s 5 -d 6 -p cbr -e 1000 -c 1 -i 20 -a 1 -x {0.0 3.0 20 ------- null}
d -t 0.530004 -s 4 -d 6 -p cbr -e 1000 -c 1 -i 20 -a 1 -x {0.0 3.0 20 ------- null}
d -t 0.530004 -s 2 -d 6 -p cbr -e 1000 -c 1 -i 20 -a 1 -x {0.0 3.0 20 ------- null}
d -t 0.530004 -s 1 -d 6 -p cbr -e 1000 -c 1 -i 20 -a 1 -x {0.0 3.0 20 ------- null}
+ -t 0.54 -s 0 -d 6 -p cbr -e 1000 -c 1 -i 21 -a 1 -x {0.0 3.0 21 ------- null}
- -t 0.54 -s 0 -d 6 -p cbr -e 1000 -c 1 -i 21 -a 1 -x {0.0 3.0 21 ------- null}
h -t 0.54 -s 0 -d 6 -p cbr -e 1000 -c 1 -i 21 -a 1 -x {0.0 3.0 -1 ------- null}
h -t 0.54 -s 0 -d 6 -p cbr -e 1000 -c 1 -i 44 -a 1 -x {0.0 3.0 44 ------- null}
d -t 0.540004 -s 5 -d 6 -p cbr -e 1000 -c 1 -i 21 -a 1 -x {0.0 3.0 21 ------- null}
d -t 0.540004 -s 4 -d 6 -p cbr -e 1000 -c 1 -i 21 -a 1 -x {0.0 3.0 21 ------- null}
d -t 0.540004 -s 2 -d 6 -p cbr -e 1000 -c 1 -i 21 -a 1 -x {0.0 3.0 21 ------- null}
d -t 0.540004 -s 1 -d 6 -p cbr -e 1000 -c 1 -i 21 -a 1 -x {0.0 3.0 21 ------- null}
+ -t 0.55 -s 0 -d 6 -p cbr -e 1000 -c 1 -i 22 -a 1 -x {0.0 3.0 22 ------- null}
- -t 0.55 -s 0 -d 6 -p cbr -e 1000 -c 1 -i 22 -a 1 -x {0.0 3.0 22 ------- null}
h -t 0.55 -s 0 -d 6 -p cbr -e 1000 -c 1 -i 22 -a 1 -x {0.0 3.0 -1 ------- null}
h -t 0.55 -s 0 -d 6 -p cbr -e 1000 -c 1 -i 45 -a 1 -x {0.0 3.0 45 ------- null}
d -t 0.550004 -s 5 -d 6 -p cbr -e 1000 -c 1 -i 22 -a 1 -x {0.0 3.0 22 ------- null}
d -t 0.550004 -s 4 -d 6 -p cbr -e 1000 -c 1 -i 22 -a 1 -x {0.0 3.0 22 ------- null}
d -t 0.550004 -s 2 -d 6 -p cbr -e 1000 -c 1 -i 22 -a 1 -x {0.0 3.0 22 ------- null}
d -t 0.550004 -s 1 -d 6 -p cbr -e 1000 -c 1 -i 22 -a 1 -x {0.0 3.0 22 ------- null}
+ -t 0.56 -s 0 -d 6 -p cbr -e 1000 -c 1 -i 23 -a 1 -x {0.0 3.0 23 ------- null}
- -t 0.56 -s 0 -d 6 -p cbr -e 1000 -c 1 -i 23 -a 1 -x {0.0 3.0 23 ------- null}
h -t 0.56 -s 0 -d 6 -p cbr -e 1000 -c 1 -i 23 -a 1 -x {0.0 3.0 -1 ------- null}
h -t 0.56 -s 0 -d 6 -p cbr -e 1000 -c 1 -i 46 -a 1 -x {0.0 3.0 46 ------- null}
r -t 0.560004 -s 6 -d 3 -p cbr -e 1000 -c 1 -i 0 -a 1 -x {0.0 3.0 0 ------- null}
d -t 0.560004 -s 5 -d 6 -p cbr -e 1000 -c 1 -i 23 -a 1 -x {0.0 3.0 23 ------- null}
d -t 0.560004 -s 4 -d 6 -p cbr -e 1000 -c 1 -i 23 -a 1 -x {0.0 3.0 23 ------- null}
d -t 0.560004 -s 2 -d 6 -p cbr -e 1000 -c 1 -i 23 -a 1 -x {0.0 3.0 23 ------- null}
d -t 0.560004 -s 1 -d 6 -p cbr -e 1000 -c 1 -i 23 -a 1 -x {0.0 3.0 23 ------- null}
+ -t 0.57 -s 0 -d 6 -p cbr -e 1000 -c 1 -i 24 -a 1 -x {0.0 3.0 24 ------- null}
- -t 0.57 -s 0 -d 6 -p cbr -e 1000 -c 1 -i 24 -a 1 -x {0.0 3.0 24 ------- null}
h -t 0.57 -s 0 -d 6 -p cbr -e 1000 -c 1 -i 24 -a 1 -x {0.0 3.0 -1 ------- null}
h -t 0.57 -s 0 -d 6 -p cbr -e 1000 -c 1 -i 47 -a 1 -x {0.0 3.0 47 ------- null}
r -t 0.570004 -s 6 -d 3 -p cbr -e 1000 -c 1 -i 1 -a 1 -x {0.0 3.0 1 ------- null}
d -t 0.570004 -s 5 -d 6 -p cbr -e 1000 -c 1 -i 24 -a 1 -x {0.0 3.0 24 ------- null}
d -t 0.570004 -s 4 -d 6 -p cbr -e 1000 -c 1 -i 24 -a 1 -x {0.0 3.0 24 ------- null}
d -t 0.570004 -s 2 -d 6 -p cbr -e 1000 -c 1 -i 24 -a 1 -x {0.0 3.0 24 ------- null}
d -t 0.570004 -s 1 -d 6 -p cbr -e 1000 -c 1 -i 24 -a 1 -x {0.0 3.0 24 ------- null}
+ -t 0.58 -s 0 -d 6 -p cbr -e 1000 -c 1 -i 25 -a 1 -x {0.0 3.0 25 ------- null}
- -t 0.58 -s 0 -d 6 -p cbr -e 1000 -c 1 -i 25 -a 1 -x {0.0 3.0 25 ------- null}
h -t 0.58 -s 0 -d 6 -p cbr -e 1000 -c 1 -i 25 -a 1 -x {0.0 3.0 -1 ------- null}
h -t 0.58 -s 0 -d 6 -p cbr -e 1000 -c 1 -i 48 -a 1 -x {0.0 3.0 48 ------- null}
r -t 0.580004 -s 6 -d 3 -p cbr -e 1000 -c 1 -i 2 -a 1 -x {0.0 3.0 2 ------- null}
d -t 0.580004 -s 5 -d 6 -p cbr -e 1000 -c 1 -i 25 -a 1 -x {0.0 3.0 25 ------- null}
d -t 0.580004 -s 4 -d 6 -p cbr -e 1000 -c 1 -i 25 -a 1 -x {0.0 3.0 25 ------- null}
d -t 0.580004 -s 2 -d 6 -p cbr -e 1000 -c 1 -i 25 -a 1 -x {0.0 3.0 25 ------- null}
d -t 0.580004 -s 1 -d 6 -p cbr -e 1000 -c 1 -i 25 -a 1 -x {0.0 3.0 25 ------- null}
+ -t 0.59 -s 0 -d 6 -p cbr -e 1000 -c 1 -i 26 -a 1 -x {0.0 3.0 26 ------- null}
- -t 0.59 -s 0 -d 6 -p cbr -e 1000 -c 1 -i 26 -a 1 -x {0.0 3.0 26 ------- null}
h -t 0.59 -s 0 -d 6 -p cbr -e 1000 -c 1 -i 26 -a 1 -x {0.0 3.0 -1 ------- null}
h -t 0.59 -s 0 -d 6 -p cbr -e 1000 -c 1 -i 49 -a 1 -x {0.0 3.0 49 ------- null}
r -t 0.590004 -s 6 -d 3 -p cbr -e 1000 -c 1 -i 3 -a 1 -x {0.0 3.0 3 ------- null}
d -t 0.590004 -s 5 -d 6 -p cbr -e 1000 -c 1 -i 26 -a 1 -x {0.0 3.0 26 ------- null}
d -t 0.590004 -s 4 -d 6 -p cbr -e 1000 -c 1 -i 26 -a 1 -x {0.0 3.0 26 ------- null}
d -t 0.590004 -s 2 -d 6 -p cbr -e 1000 -c 1 -i 26 -a 1 -x {0.0 3.0 26 ------- null}
d -t 0.590004 -s 1 -d 6 -p cbr -e 1000 -c 1 -i 26 -a 1 -x {0.0 3.0 26 ------- null}
+ -t 0.6 -s 0 -d 6 -p cbr -e 1000 -c 1 -i 27 -a 1 -x {0.0 3.0 27 ------- null}
- -t 0.6 -s 0 -d 6 -p cbr -e 1000 -c 1 -i 27 -a 1 -x {0.0 3.0 27 ------- null}
h -t 0.6 -s 0 -d 6 -p cbr -e 1000 -c 1 -i 27 -a 1 -x {0.0 3.0 -1 ------- null}
h -t 0.6 -s 0 -d 6 -p cbr -e 1000 -c 1 -i 50 -a 1 -x {0.0 3.0 50 ------- null}
r -t 0.600004 -s 6 -d 3 -p cbr -e 1000 -c 1 -i 4 -a 1 -x {0.0 3.0 4 ------- null}
d -t 0.600004 -s 5 -d 6 -p cbr -e 1000 -c 1 -i 27 -a 1 -x {0.0 3.0 27 ------- null}
d -t 0.600004 -s 4 -d 6 -p cbr -e 1000 -c 1 -i 27 -a 1 -x {0.0 3.0 27 ------- null}
d -t 0.600004 -s 2 -d 6 -p cbr -e 1000 -c 1 -i 27 -a 1 -x {0.0 3.0 27 ------- null}
d -t 0.600004 -s 1 -d 6 -p cbr -e 1000 -c 1 -i 27 -a 1 -x {0.0 3.0 27 ------- null}
+ -t 0.61 -s 0 -d 6 -p cbr -e 1000 -c 1 -i 28 -a 1 -x {0.0 3.0 28 ------- null}
- -t 0.61 -s 0 -d 6 -p cbr -e 1000 -c 1 -i 28 -a 1 -x {0.0 3.0 28 ------- null}
h -t 0.61 -s 0 -d 6 -p cbr -e 1000 -c 1 -i 28 -a 1 -x {0.0 3.0 -1 ------- null}
h -t 0.61 -s 0 -d 6 -p cbr -e 1000 -c 1 -i 51 -a 1 -x {0.0 3.0 51 ------- null}
r -t 0.610004 -s 6 -d 3 -p cbr -e 1000 -c 1 -i 5 -a 1 -x {0.0 3.0 5 ------- null}
d -t 0.610004 -s 5 -d 6 -p cbr -e 1000 -c 1 -i 28 -a 1 -x {0.0 3.0 28 ------- null}
d -t 0.610004 -s 4 -d 6 -p cbr -e 1000 -c 1 -i 28 -a 1 -x {0.0 3.0 28 ------- null}
d -t 0.610004 -s 2 -d 6 -p cbr -e 1000 -c 1 -i 28 -a 1 -x {0.0 3.0 28 ------- null}
d -t 0.610004 -s 1 -d 6 -p cbr -e 1000 -c 1 -i 28 -a 1 -x {0.0 3.0 28 ------- null}
+ -t 0.62 -s 0 -d 6 -p cbr -e 1000 -c 1 -i 29 -a 1 -x {0.0 3.0 29 ------- null}
- -t 0.62 -s 0 -d 6 -p cbr -e 1000 -c 1 -i 29 -a 1 -x {0.0 3.0 29 ------- null}
h -t 0.62 -s 0 -d 6 -p cbr -e 1000 -c 1 -i 29 -a 1 -x {0.0 3.0 -1 ------- null}
h -t 0.62 -s 0 -d 6 -p cbr -e 1000 -c 1 -i 52 -a 1 -x {0.0 3.0 52 ------- null}
r -t 0.620004 -s 6 -d 3 -p cbr -e 1000 -c 1 -i 6 -a 1 -x {0.0 3.0 6 ------- null}
d -t 0.620004 -s 5 -d 6 -p cbr -e 1000 -c 1 -i 29 -a 1 -x {0.0 3.0 29 ------- null}
d -t 0.620004 -s 4 -d 6 -p cbr -e 1000 -c 1 -i 29 -a 1 -x {0.0 3.0 29 ------- null}
d -t 0.620004 -s 2 -d 6 -p cbr -e 1000 -c 1 -i 29 -a 1 -x {0.0 3.0 29 ------- null}
d -t 0.620004 -s 1 -d 6 -p cbr -e 1000 -c 1 -i 29 -a 1 -x {0.0 3.0 29 ------- null}
+ -t 0.63 -s 0 -d 6 -p cbr -e 1000 -c 1 -i 30 -a 1 -x {0.0 3.0 30 ------- null}
- -t 0.63 -s 0 -d 6 -p cbr -e 1000 -c 1 -i 30 -a 1 -x {0.0 3.0 30 ------- null}
h -t 0.63 -s 0 -d 6 -p cbr -e 1000 -c 1 -i 30 -a 1 -x {0.0 3.0 -1 ------- null}
h -t 0.63 -s 0 -d 6 -p cbr -e 1000 -c 1 -i 53 -a 1 -x {0.0 3.0 53 ------- null}
r -t 0.630004 -s 6 -d 3 -p cbr -e 1000 -c 1 -i 7 -a 1 -x {0.0 3.0 7 ------- null}
d -t 0.630004 -s 5 -d 6 -p cbr -e 1000 -c 1 -i 30 -a 1 -x {0.0 3.0 30 ------- null}
d -t 0.630004 -s 4 -d 6 -p cbr -e 1000 -c 1 -i 30 -a 1 -x {0.0 3.0 30 ------- null}
d -t 0.630004 -s 2 -d 6 -p cbr -e 1000 -c 1 -i 30 -a 1 -x {0.0 3.0 30 ------- null}
d -t 0.630004 -s 1 -d 6 -p cbr -e 1000 -c 1 -i 30 -a 1 -x {0.0 3.0 30 ------- null}
+ -t 0.64 -s 0 -d 6 -p cbr -e 1000 -c 1 -i 31 -a 1 -x {0.0 3.0 31 ------- null}
- -t 0.64 -s 0 -d 6 -p cbr -e 1000 -c 1 -i 31 -a 1 -x {0.0 3.0 31 ------- null}
h -t 0.64 -s 0 -d 6 -p cbr -e 1000 -c 1 -i 31 -a 1 -x {0.0 3.0 -1 ------- null}
h -t 0.64 -s 0 -d 6 -p cbr -e 1000 -c 1 -i 54 -a 1 -x {0.0 3.0 54 ------- null}
r -t 0.640004 -s 6 -d 3 -p cbr -e 1000 -c 1 -i 8 -a 1 -x {0.0 3.0 8 ------- null}
d -t 0.640004 -s 5 -d 6 -p cbr -e 1000 -c 1 -i 31 -a 1 -x {0.0 3.0 31 ------- null}
d -t 0.640004 -s 4 -d 6 -p cbr -e 1000 -c 1 -i 31 -a 1 -x {0.0 3.0 31 ------- null}
d -t 0.640004 -s 2 -d 6 -p cbr -e 1000 -c 1 -i 31 -a 1 -x {0.0 3.0 31 ------- null}
d -t 0.640004 -s 1 -d 6 -p cbr -e 1000 -c 1 -i 31 -a 1 -x {0.0 3.0 31 ------- null}
+ -t 0.65 -s 0 -d 6 -p cbr -e 1000 -c 1 -i 32 -a 1 -x {0.0 3.0 32 ------- null}
- -t 0.65 -s 0 -d 6 -p cbr -e 1000 -c 1 -i 32 -a 1 -x {0.0 3.0 32 ------- null}
h -t 0.65 -s 0 -d 6 -p cbr -e 1000 -c 1 -i 32 -a 1 -x {0.0 3.0 -1 ------- null}
h -t 0.65 -s 0 -d 6 -p cbr -e 1000 -c 1 -i 55 -a 1 -x {0.0 3.0 55 ------- null}
r -t 0.650004 -s 6 -d 3 -p cbr -e 1000 -c 1 -i 9 -a 1 -x {0.0 3.0 9 ------- null}
d -t 0.650004 -s 5 -d 6 -p cbr -e 1000 -c 1 -i 32 -a 1 -x {0.0 3.0 32 ------- null}
d -t 0.650004 -s 4 -d 6 -p cbr -e 1000 -c 1 -i 32 -a 1 -x {0.0 3.0 32 ------- null}
d -t 0.650004 -s 2 -d 6 -p cbr -e 1000 -c 1 -i 32 -a 1 -x {0.0 3.0 32 ------- null}
d -t 0.650004 -s 1 -d 6 -p cbr -e 1000 -c 1 -i 32 -a 1 -x {0.0 3.0 32 ------- null}
+ -t 0.66 -s 0 -d 6 -p cbr -e 1000 -c 1 -i 33 -a 1 -x {0.0 3.0 33 ------- null}
- -t 0.66 -s 0 -d 6 -p cbr -e 1000 -c 1 -i 33 -a 1 -x {0.0 3.0 33 ------- null}
h -t 0.66 -s 0 -d 6 -p cbr -e 1000 -c 1 -i 33 -a 1 -x {0.0 3.0 -1 ------- null}
h -t 0.66 -s 0 -d 6 -p cbr -e 1000 -c 1 -i 56 -a 1 -x {0.0 3.0 56 ------- null}
r -t 0.660004 -s 6 -d 3 -p cbr -e 1000 -c 1 -i 10 -a 1 -x {0.0 3.0 10 ------- null}
d -t 0.660004 -s 5 -d 6 -p cbr -e 1000 -c 1 -i 33 -a 1 -x {0.0 3.0 33 ------- null}
d -t 0.660004 -s 4 -d 6 -p cbr -e 1000 -c 1 -i 33 -a 1 -x {0.0 3.0 33 ------- null}
d -t 0.660004 -s 2 -d 6 -p cbr -e 1000 -c 1 -i 33 -a 1 -x {0.0 3.0 33 ------- null}
d -t 0.660004 -s 1 -d 6 -p cbr -e 1000 -c 1 -i 33 -a 1 -x {0.0 3.0 33 ------- null}
+ -t 0.67 -s 0 -d 6 -p cbr -e 1000 -c 1 -i 34 -a 1 -x {0.0 3.0 34 ------- null}
- -t 0.67 -s 0 -d 6 -p cbr -e 1000 -c 1 -i 34 -a 1 -x {0.0 3.0 34 ------- null}
h -t 0.67 -s 0 -d 6 -p cbr -e 1000 -c 1 -i 34 -a 1 -x {0.0 3.0 -1 ------- null}
h -t 0.67 -s 0 -d 6 -p cbr -e 1000 -c 1 -i 57 -a 1 -x {0.0 3.0 57 ------- null}
r -t 0.670004 -s 6 -d 3 -p cbr -e 1000 -c 1 -i 11 -a 1 -x {0.0 3.0 11 ------- null}
d -t 0.670004 -s 5 -d 6 -p cbr -e 1000 -c 1 -i 34 -a 1 -x {0.0 3.0 34 ------- null}
d -t 0.670004 -s 4 -d 6 -p cbr -e 1000 -c 1 -i 34 -a 1 -x {0.0 3.0 34 ------- null}
d -t 0.670004 -s 2 -d 6 -p cbr -e 1000 -c 1 -i 34 -a 1 -x {0.0 3.0 34 ------- null}
d -t 0.670004 -s 1 -d 6 -p cbr -e 1000 -c 1 -i 34 -a 1 -x {0.0 3.0 34 ------- null}
+ -t 0.68 -s 0 -d 6 -p cbr -e 1000 -c 1 -i 35 -a 1 -x {0.0 3.0 35 ------- null}
- -t 0.68 -s 0 -d 6 -p cbr -e 1000 -c 1 -i 35 -a 1 -x {0.0 3.0 35 ------- null}
h -t 0.68 -s 0 -d 6 -p cbr -e 1000 -c 1 -i 35 -a 1 -x {0.0 3.0 -1 ------- null}
h -t 0.68 -s 0 -d 6 -p cbr -e 1000 -c 1 -i 58 -a 1 -x {0.0 3.0 58 ------- null}
r -t 0.680004 -s 6 -d 3 -p cbr -e 1000 -c 1 -i 12 -a 1 -x {0.0 3.0 12 ------- null}
d -t 0.680004 -s 5 -d 6 -p cbr -e 1000 -c 1 -i 35 -a 1 -x {0.0 3.0 35 ------- null}
d -t 0.680004 -s 4 -d 6 -p cbr -e 1000 -c 1 -i 35 -a 1 -x {0.0 3.0 35 ------- null}
d -t 0.680004 -s 2 -d 6 -p cbr -e 1000 -c 1 -i 35 -a 1 -x {0.0 3.0 35 ------- null}
d -t 0.680004 -s 1 -d 6 -p cbr -e 1000 -c 1 -i 35 -a 1 -x {0.0 3.0 35 ------- null}
+ -t 0.69 -s 0 -d 6 -p cbr -e 1000 -c 1 -i 36 -a 1 -x {0.0 3.0 36 ------- null}
- -t 0.69 -s 0 -d 6 -p cbr -e 1000 -c 1 -i 36 -a 1 -x {0.0 3.0 36 ------- null}
h -t 0.69 -s 0 -d 6 -p cbr -e 1000 -c 1 -i 36 -a 1 -x {0.0 3.0 -1 ------- null}
h -t 0.690000000000001 -s 0 -d 6 -p cbr -e 1000 -c 1 -i 59 -a 1 -x {0.0 3.0 59 ------- null}
r -t 0.690004 -s 6 -d 3 -p cbr -e 1000 -c 1 -i 13 -a 1 -x {0.0 3.0 13 ------- null}
d -t 0.690004 -s 5 -d 6 -p cbr -e 1000 -c 1 -i 36 -a 1 -x {0.0 3.0 36 ------- null}
d -t 0.690004 -s 4 -d 6 -p cbr -e 1000 -c 1 -i 36 -a 1 -x {0.0 3.0 36 ------- null}
d -t 0.690004 -s 2 -d 6 -p cbr -e 1000 -c 1 -i 36 -a 1 -x {0.0 3.0 36 ------- null}
d -t 0.690004 -s 1 -d 6 -p cbr -e 1000 -c 1 -i 36 -a 1 -x {0.0 3.0 36 ------- null}
+ -t 0.7 -s 0 -d 6 -p cbr -e 1000 -c 1 -i 37 -a 1 -x {0.0 3.0 37 ------- null}
- -t 0.7 -s 0 -d 6 -p cbr -e 1000 -c 1 -i 37 -a 1 -x {0.0 3.0 37 ------- null}
h -t 0.7 -s 0 -d 6 -p cbr -e 1000 -c 1 -i 37 -a 1 -x {0.0 3.0 -1 ------- null}
h -t 0.700000000000001 -s 0 -d 6 -p cbr -e 1000 -c 1 -i 60 -a 1 -x {0.0 3.0 60 ------- null}
r -t 0.700004 -s 6 -d 3 -p cbr -e 1000 -c 1 -i 14 -a 1 -x {0.0 3.0 14 ------- null}
d -t 0.700004 -s 5 -d 6 -p cbr -e 1000 -c 1 -i 37 -a 1 -x {0.0 3.0 37 ------- null}
d -t 0.700004 -s 4 -d 6 -p cbr -e 1000 -c 1 -i 37 -a 1 -x {0.0 3.0 37 ------- null}
d -t 0.700004 -s 2 -d 6 -p cbr -e 1000 -c 1 -i 37 -a 1 -x {0.0 3.0 37 ------- null}
d -t 0.700004 -s 1 -d 6 -p cbr -e 1000 -c 1 -i 37 -a 1 -x {0.0 3.0 37 ------- null}
+ -t 0.71 -s 0 -d 6 -p cbr -e 1000 -c 1 -i 38 -a 1 -x {0.0 3.0 38 ------- null}
- -t 0.71 -s 0 -d 6 -p cbr -e 1000 -c 1 -i 38 -a 1 -x {0.0 3.0 38 ------- null}
h -t 0.71 -s 0 -d 6 -p cbr -e 1000 -c 1 -i 38 -a 1 -x {0.0 3.0 -1 ------- null}
h -t 0.710000000000001 -s 0 -d 6 -p cbr -e 1000 -c 1 -i 61 -a 1 -x {0.0 3.0 61 ------- null}
r -t 0.710004 -s 6 -d 3 -p cbr -e 1000 -c 1 -i 15 -a 1 -x {0.0 3.0 15 ------- null}
d -t 0.710004 -s 5 -d 6 -p cbr -e 1000 -c 1 -i 38 -a 1 -x {0.0 3.0 38 ------- null}
d -t 0.710004 -s 4 -d 6 -p cbr -e 1000 -c 1 -i 38 -a 1 -x {0.0 3.0 38 ------- null}
d -t 0.710004 -s 2 -d 6 -p cbr -e 1000 -c 1 -i 38 -a 1 -x {0.0 3.0 38 ------- null}
d -t 0.710004 -s 1 -d 6 -p cbr -e 1000 -c 1 -i 38 -a 1 -x {0.0 3.0 38 ------- null}
+ -t 0.72 -s 0 -d 6 -p cbr -e 1000 -c 1 -i 39 -a 1 -x {0.0 3.0 39 ------- null}
- -t 0.72 -s 0 -d 6 -p cbr -e 1000 -c 1 -i 39 -a 1 -x {0.0 3.0 39 ------- null}
h -t 0.72 -s 0 -d 6 -p cbr -e 1000 -c 1 -i 39 -a 1 -x {0.0 3.0 -1 ------- null}
h -t 0.720000000000001 -s 0 -d 6 -p cbr -e 1000 -c 1 -i 62 -a 1 -x {0.0 3.0 62 ------- null}
r -t 0.720004 -s 6 -d 3 -p cbr -e 1000 -c 1 -i 16 -a 1 -x {0.0 3.0 16 ------- null}
d -t 0.720004 -s 5 -d 6 -p cbr -e 1000 -c 1 -i 39 -a 1 -x {0.0 3.0 39 ------- null}
d -t 0.720004 -s 4 -d 6 -p cbr -e 1000 -c 1 -i 39 -a 1 -x {0.0 3.0 39 ------- null}
d -t 0.720004 -s 2 -d 6 -p cbr -e 1000 -c 1 -i 39 -a 1 -x {0.0 3.0 39 ------- null}
d -t 0.720004 -s 1 -d 6 -p cbr -e 1000 -c 1 -i 39 -a 1 -x {0.0 3.0 39 ------- null}