h 0.1 0 6 cbr 1000 ------- 1 0.0 3.0 0 0
h 0.11 0 6 cbr 1000 ------- 1 0.0 3.0 1 1
h 0.12 0 6 cbr 1000 ------- 1 0.0 3.0 2 2
h 0.13 0 6 cbr 1000 ------- 1 0.0 3.0 3 3
h 0.14 0 6 cbr 1000 ------- 1 0.0 3.0 4 4
h 0.15 0 6 cbr 1000 ------- 1 0.0 3.0 5 5
h 0.16 0 6 cbr 1000 ------- 1 0.0 3.0 6 6
h 0.17 0 6 cbr 1000 ------- 1 0.0 3.0 7 7
h 0.18 0 6 cbr 1000 ------- 1 0.0 3.0 8 8
h 0.19 0 6 cbr 1000 ------- 1 0.0 3.0 9 9
h 0.2 0 6 cbr 1000 ------- 1 0.0 3.0 10 10
h 0.21 0 6 cbr 1000 ------- 1 0.0 3.0 11 11
h 0.22 0 6 cbr 1000 ------- 1 0.0 3.0 12 12
h 0.23 0 6 cbr 1000 ------- 1 0.0 3.0 13 13
h 0.24 0 6 cbr 1000 ------- 1 0.0 3.0 14 14
h 0.25 0 6 cbr 1000 ------- 1 0.0 3.0 15 15
h 0.26 0 6 cbr 1000 ------- 1 0.0 3.0 16 16
h 0.27 0 6 cbr 1000 ------- 1 0.0 3.0 17 17
h 0.28 0 6 cbr 1000 ------- 1 0.0 3.0 18 18
h 0.29 0 6 cbr 1000 ------- 1 0.0 3.0 19 19
h 0.3 0 6 cbr 1000 ------- 1 0.0 3.0 20 20
h 0.31 0 6 cbr 1000 ------- 1 0.0 3.0 21 21
h 0.32 0 6 cbr 1000 ------- 1 0.0 3.0 22 22
+ 0.33 0 6 cbr 1000 ------- 1 0.0 3.0 0 0
- 0.33 0 6 cbr 1000 ------- 1 0.0 3.0 0 0
h 0.33 0 6 cbr 1000 ------- 1 0.0 3.0 23 23
d 0.330004 5 6 cbr 1000 ------- 1 0.0 3.0 0 0
d 0.330004 4 6 cbr 1000 ------- 1 0.0 3.0 0 0
d 0.330004 2 6 cbr 1000 ------- 1 0.0 3.0 0 0
d 0.330004 1 6 cbr 1000 ------- 1 0.0 3.0 0 0
+ 0.34 0 6 cbr 1000 ------- 1 0.0 3.0 1 1
- 0.34 0 6 cbr 1000 ------- 1 0.0 3.0 1 1
h 0.34 0 6 cbr 1000 ------- 1 0.0 3.0 24 24
d 0.340004 5 6 cbr 1000 ------- 1 0.0 3.0 1 1
d 0.340004 4 6 cbr 1000 ------- 1 0.0 3.0 1 1
d 0.340004 2 6 cbr 1000 ------- 1 0.0 3.0 1 1
d 0.340004 1 6 cbr 1000 ------- 1 0.0 3.0 1 1
+ 0.35 0 6 cbr 1000 ------- 1 0.0 3.0 2 2
- 0.35 0 6 cbr 1000 ------- 1 0.0 3.0 2 2
h 0.35 0 6 cbr 1000 ------- 1 0.0 3.0 25 25
d 0.350004 5 6 cbr 1000 ------- 1 0.0 3.0 2 2
d 0.350004 4 6 cbr 1000 ------- 1 0.0 3.0 2 2
d 0.350004 2 6 cbr 1000 ------- 1 0.0 3.0 2 2
d 0.350004 1 6 cbr 1000 ------- 1 0.0 3.0 2 2
+ 0.36 0 6 cbr 1000 ------- 1 0.0 3.0 3 3
- 0.36 0 6 cbr 1000 ------- 1 0.0 3.0 3 3
h 0.36 0 6 cbr 1000 ------- 1 0.0 3.0 26 26
d 0.360004 5 6 cbr 1000 ------- 1 0.0 3.0 3 3
d 0.360004 4 6 cbr 1000 ------- 1 0.0 3.0 3 3
d 0.360004 2 6 cbr 1000 ------- 1 0.0 3.0 3 3
d 0.360004 1 6 cbr 1000 ------- 1 0.0 3.0 3 3
+ 0.37 0 6 cbr 1000 ------- 1 0.0 3.0 4 4
- 0.37 0 6 cbr 1000 ------- 1 0.0 3.0 4 4
h 0.37 0 6 cbr 1000 ------- 1 0.0 3.0 27 27
d 0.370004 5 6 cbr 1000 ------- 1 0.0 3.0 4 4
d 0.370004 4 6 cbr 1000 ------- 1 0.0 3.0 4 4
d 0.370004 2 6 cbr 1000 ------- 1 0.0 3.0 4 4
d 0.370004 1 6 cbr 1000 ------- 1 0.0 3.0 4 4
+ 0.38 0 6 cbr 1000 ------- 1 0.0 3.0 5 5
- 0.38 0 6 cbr 1000 ------- 1 0.0 3.0 5 5
h 0.38 0 6 cbr 1000 ------- 1 0.0 3.0 28 28
d 0.380004 5 6 cbr 1000 ------- 1 0.0 3.0 5 5
d 0.380004 4 6 cbr 1000 ------- 1 0.0 3.0 5 5
d 0.380004 2 6 cbr 1000 ------- 1 0.0 3.0 5 5
d 0.380004 1 6 cbr 1000 ------- 1 0.0 3.0 5 5
+ 0.39 0 6 cbr 1000 ------- 1 0.0 3.0 6 6
- 0.39 0 6 cbr 1000 ------- 1 0.0 3.0 6 6
h 0.39 0 6 cbr 1000 ------- 1 0.0 3.0 29 29
d 0.390004 5 6 cbr 1000 ------- 1 0.0 3.0 6 6
d 0.390004 4 6 cbr 1000 ------- 1 0.0 3.0 6 6
d 0.390004 2 6 cbr 1000 ------- 1 0.0 3.0 6 6
d 0.390004 1 6 cbr 1000 ------- 1 0.0 3.0 6 6
+ 0.4 0 6 cbr 1000 ------- 1 0.0 3.0 7 7
- 0.4 0 6 cbr 1000 ------- 1 0.0 3.0 7 7
h 0.4 0 6 cbr 1000 ------- 1 0.0 3.0 30 30
d 0.400004 5 6 cbr 1000 ------- 1 0.0 3.0 7 7
d 0.400004 4 6 cbr 1000 ------- 1 0.0 3.0 7 7
d 0.400004 2 6 cbr 1000 ------- 1 0.0 3.0 7 7
d 0.400004 1 6 cbr 1000 ------- 1 0.0 3.0 7 7
+ 0.41 0 6 cbr 1000 ------- 1 0.0 3.0 8 8
- 0.41 0 6 cbr 1000 ------- 1 0.0 3.0 8 8
h 0.41 0 6 cbr 1000 ------- 1 0.0 3.0 31 31
d 0.410004 5 6 cbr 1000 ------- 1 0.0 3.0 8 8
d 0.410004 4 6 cbr 1000 ------- 1 0.0 3.0 8 8
d 0.410004 2 6 cbr 1000 ------- 1 0.0 3.0 8 8
d 0.410004 1 6 cbr 1000 ------- 1 0.0 3.0 8 8
+ 0.42 0 6 cbr 1000 ------- 1 0.0 3.0 9 9
- 0.42 0 6 cbr 1000 ------- 1 0.0 3.0 9 9
h 0.42 0 6 cbr 1000 ------- 1 0.0 3.0 32 32
d 0.420004 5 6 cbr 1000 ------- 1 0.0 3.0 9 9
d 0.420004 4 6 cbr 1000 ------- 1 0.0 3.0 9 9
d 0.420004 2 6 cbr 1000 ------- 1 0.0 3.0 9 9
d 0.420004 1 6 cbr 1000 ------- 1 0.0 3.0 9 9
+ 0.43 0 6 cbr 1000 ------- 1 0.0 3.0 10 10
- 0.43 0 6 cbr 1000 ------- 1 0.0 3.0 10 10
h 0.43 0 6 cbr 1000 ------- 1 0.0 3.0 33 33
d 0.430004 5 6 cbr 1000 ------- 1 0.0 3.0 10 10
d 0.430004 4 6 cbr 1000 ------- 1 0.0 3.0 10 10
d 0.430004 2 6 cbr 1000 ------- 1 0.0 3.0 10 10
d 0.430004 1 6 cbr 1000 ------- 1 0.0 3.0 10 10
+ 0.44 0 6 cbr 1000 ------- 1 0.0 3.0 11 11
- 0.44 0 6 cbr 1000 ------- 1 0.0 3.0 11 11
h 0.44 0 6 cbr 1000 ------- 1 0.0 3.0 34 34
d 0.440004 5 6 cbr 1000 ------- 1 0.0 3.0 11 11
d 0.440004 4 6 cbr 1000 ------- 1 0.0 3.0 11 11
d 0.440004 2 6 cbr 1000 ------- 1 0.0 3.0 11 11
d 0.440004 1 6 cbr 1000 ------- 1 0.0 3.0 11 11
+ 0.45 0 6 cbr 1000 ------- 1 0.0 3.0 12 12
- 0.45 0 6 cbr 1000 ------- 1 0.0 3.0 12 12
h 0.45 0 6 cbr 1000 ------- 1 0.0 3.0 35 35
d 0.450004 5 6 cbr 1000 ------- 1 0.0 3.0 12 12
d 0.450004 4 6 cbr 1000 ------- 1 0.0 3.0 12 12
d 0.450004 2 6 cbr 1000 ------- 1 0.0 3.0 12 12
d 0.450004 1 6 cbr 1000 ------- 1 0.0 3.0 12 12
+ 0.46 0 6 cbr 1000 ------- 1 0.0 3.0 13 13
- 0.46 0 6 cbr 1000 ------- 1 0.0 3.0 13 13
h 0.46 0 6 cbr 1000 ------- 1 0.0 3.0 36 36
d 0.460004 5 6 cbr 1000 ------- 1 0.0 3.0 13 13
d 0.460004 4 6 cbr 1000 ------- 1 0.0 3.0 13 13
d 0.460004 2 6 cbr 1000 ------- 1 0.0 3.0 13 13
d 0.460004 1 6 cbr 1000 ------- 1 0.0 3.0 13 13
+ 0.47 0 6 cbr 1000 ------- 1 0.0 3.0 14 14
- 0.47 0 6 cbr 1000 ------- 1 0.0 3.0 14 14
h 0.47 0 6 cbr 1000 ------- 1 0.0 3.0 37 37
d 0.470004 5 6 cbr 1000 ------- 1 0.0 3.0 14 14
d 0.470004 4 6 cbr 1000 ------- 1 0.0 3.0 14 14
d 0.470004 2 6 cbr 1000 ------- 1 0.0 3.0 14 14
d 0.470004 1 6 cbr 1000 ------- 1 0.0 3.0 14 14
+ 0.48 0 6 cbr 1000 ------- 1 0.0 3.0 15 15
- 0.48 0 6 cbr 1000 ------- 1 0.0 3.0 15 15
h 0.48 0 6 cbr 1000 ------- 1 0.0 3.0 38 38
d 0.480004 5 6 cbr 1000 ------- 1 0.0 3.0 15 15
d 0.480004 4 6 cbr 1000 ------- 1 0.0 3.0 15 15
d 0.480004 2 6 cbr 1000 ------- 1 0.0 3.0 15 15
d 0.480004 1 6 cbr 1000 ------- 1 0.0 3.0 15 15
+ 0.49 0 6 cbr 1000 ------- 1 0.0 3.0 16 16
- 0.49 0 6 cbr 1000 ------- 1 0.0 3.0 16 16
h 0.49 0 6 cbr 1000 ------- 1 0.0 3.0 39 39
d 0.490004 5 6 cbr 1000 ------- 1 0.0 3.0 16 16
d 0.490004 4 6 cbr 1000 ------- 1 0.0 3.0 16 16
d 0.490004 2 6 cbr 1000 ------- 1 0.0 3.0 16 16
d 0.490004 1 6 cbr 1000 ------- 1 0.0 3.0 16 16
+ 0.5 0 6 cbr 1000 ------- 1 0.0 3.0 17 17
- 0.5 0 6 cbr 1000 ------- 1 0.0 3.0 17 17
h 0.5 0 6 cbr 1000 ------- 1 0.0 3.0 40 40
d 0.500004 5 6 cbr 1000 ------- 1 0.0 3.0 17 17
d 0.500004 4 6 cbr 1000 ------- 1 0.0 3.0 17 17
d 0.500004 2 6 cbr 1000 ------- 1 0.0 3.0 17 17
d 0.500004 1 6 cbr 1000 ------- 1 0.0 3.0 17 17
+ 0.51 0 6 cbr 1000 ------- 1 0.0 3.0 18 18
- 0.51 0 6 cbr 1000 ------- 1 0.0 3.0 18 18
h 0.51 0 6 cbr 1000 ------- 1 0.0 3.0 41 41
d 0.510004 5 6 cbr 1000 ------- 1 0.0 3.0 18 18
d 0.510004 4 6 cbr 1000 ------- 1 0.0 3.0 18 18
d 0.510004 2 6 cbr 1000 ------- 1 0.0 3.0 18 18
d 0.510004 1 6 cbr 1000 ------- 1 0.0 3.0 18 18
+ 0.52 0 6 cbr 1000 ------- 1 0.0 3.0 19 19
- 0.52 0 6 cbr 1000 ------- 1 0.0 3.0 19 19
h 0.52 0 6 cbr 1000 ------- 1 0.0 3.0 42 42
d 0.520004 5 6 cbr 1000 ------- 1 0.0 3.0 19 19
d 0.520004 4 6 cbr 1000 ------- 1 0.0 3.0 19 19
d 0.520004 2 6 cbr 1000 ------- 1 0.0 3.0 19 19
d 0.520004 1 6 cbr 1000 ------- 1 0.0 3.0 19 19
+ 0.53 0 6 cbr 1000 ------- 1 0.0 3.0 20 20
- 0.53 0 6 cbr 1000 ------- 1 0.0 3.0 20 20
h 0.53 0 6 cbr 1000 ------- 1 0.0 3.0 43 43
d 0.530004 5 6 cbr 1000 ------- 1 0.0 3.0 20 20
d 0.530004 4 6 cbr 1000 ------- 1 0.0 3.0 20 20
d 0.530004 2 6 cbr 1000 ------- 1 0.0 3.0 20 20
d 0.530004 1 6 cbr 1000 ------- 1 0.0 3.0 20 20
+ 0.54 0 6 cbr 1000 ------- 1 0.0 3.0 21 21
- 0.54 0 6 cbr 1000 ------- 1 0.0 3.0 21 21
h 0.54 0 6 cbr 1000 ------- 1 0.0 3.0 44 44
d 0.540004 5 6 cbr 1000 ------- 1 0.0 3.0 21 21
d 0.540004 4 6 cbr 1000 ------- 1 0.0 3.0 21 21
d 0.540004 2 6 cbr 1000 ------- 1 0.0 3.0 21 21
d 0.540004 1 6 cbr 1000 ------- 1 0.0 3.0 21 21
+ 0.55 0 6 cbr 1000 ------- 1 0.0 3.0 22 22
- 0.55 0 6 cbr 1000 ------- 1 0.0 3.0 22 22
h 0.55 0 6 cbr 1000 ------- 1 0.0 3.0 45 45
d 0.550004 5 6 cbr 1000 ------- 1 0.0 3.0 22 22
d 0.550004 4 6 cbr 1000 ------- 1 0.0 3.0 22 22
d 0.550004 2 6 cbr 1000 ------- 1 0.0 3.0 22 22
d 0.550004 1 6 cbr 1000 ------- 1 0.0 3.0 22 22
+ 0.56 0 6 cbr 1000 ------- 1 0.0 3.0 23 23
- 0.56 0 6 cbr 1000 ------- 1 0.0 3.0 23 23
h 0.56 0 6 cbr 1000 ------- 1 0.0 3.0 46 46
r 0.560004 6 3 cbr 1000 ------- 1 0.0 3.0 0 0
d 0.560004 5 6 cbr 1000 ------- 1 0.0 3.0 23 23
d 0.560004 4 6 cbr 1000 ------- 1 0.0 3.0 23 23
d 0.560004 2 6 cbr 1000 ------- 1 0.0 3.0 23 23
d 0.560004 1 6 cbr 1000 ------- 1 0.0 3.0 23 23
+ 0.57 0 6 cbr 1000 ------- 1 0.0 3.0 24 24
- 0.57 0 6 cbr 1000 ------- 1 0.0 3.0 24 24
h 0.57 0 6 cbr 1000 ------- 1 0.0 3.0 47 47
r 0.570004 6 3 cbr 1000 ------- 1 0.0 3.0 1 1
d 0.570004 5 6 cbr 1000 ------- 1 0.0 3.0 24 24
d 0.570004 4 6 cbr 1000 ------- 1 0.0 3.0 24 24
d 0.570004 2 6 cbr 1000 ------- 1 0.0 3.0 24 24
d 0.570004 1 6 cbr 1000 ------- 1 0.0 3.0 24 24
+ 0.58 0 6 cbr 1000 ------- 1 0.0 3.0 25 25
- 0.58 0 6 cbr 1000 ------- 1 0.0 3.0 25 25
h 0.58 0 6 cbr 1000 ------- 1 0.0 3.0 48 48
r 0.580004 6 3 cbr 1000 ------- 1 0.0 3.0 2 2
d 0.580004 5 6 cbr 1000 ------- 1 0.0 3.0 25 25
d 0.580004 4 6 cbr 1000 ------- 1 0.0 3.0 25 25
d 0.580004 2 6 cbr 1000 ------- 1 0.0 3.0 25 25
d 0.580004 1 6 cbr 1000 ------- 1 0.0 3.0 25 25
+ 0.59 0 6 cbr 1000 ------- 1 0.0 3.0 26 26
- 0.59 0 6 cbr 1000 ------- 1 0.0 3.0 26 26
h 0.59 0 6 cbr 1000 ------- 1 0.0 3.0 49 49
r 0.590004 6 3 cbr 1000 ------- 1 0.0 3.0 3 3
d 0.590004 5 6 cbr 1000 ------- 1 0.0 3.0 26 26
d 0.590004 4 6 cbr 1000 ------- 1 0.0 3.0 26 26
d 0.590004 2 6 cbr 1000 ------- 1 0.0 3.0 26 26
d 0.590004 1 6 cbr 1000 ------- 1 0.0 3.0 26 26
+ 0.6 0 6 cbr 1000 ------- 1 0.0 3.0 27 27
- 0.6 0 6 cbr 1000 ------- 1 0.0 3.0 27 27
h 0.6 0 6 cbr 1000 ------- 1 0.0 3.0 50 50
r 0.600004 6 3 cbr 1000 ------- 1 0.0 3.0 4 4
d 0.600004 5 6 cbr 1000 ------- 1 0.0 3.0 27 27
d 0.600004 4 6 cbr 1000 ------- 1 0.0 3.0 27 27
d 0.600004 2 6 cbr 1000 ------- 1 0.0 3.0 27 27
d 0.600004 1 6 cbr 1000 ------- 1 0.0 3.0 27 27
+ 0.61 0 6 cbr 1000 ------- 1 0.0 3.0 28 28
- 0.61 0 6 cbr 1000 ------- 1 0.0 3.0 28 28
h 0.61 0 6 cbr 1000 ------- 1 0.0 3.0 51 51
r 0.610004 6 3 cbr 1000 ------- 1 0.0 3.0 5 5
d 0.610004 5 6 cbr 1000 ------- 1 0.0 3.0 28 28
d 0.610004 4 6 cbr 1000 ------- 1 0.0 3.0 28 28
d 0.610004 2 6 cbr 1000 ------- 1 0.0 3.0 28 28
d 0.610004 1 6 cbr 1000 ------- 1 0.0 3.0 28 28
+ 0.62 0 6 cbr 1000 ------- 1 0.0 3.0 29 29
- 0.62 0 6 cbr 1000 ------- 1 0.0 3.0 29 29
h 0.62 0 6 cbr 1000 ------- 1 0.0 3.0 52 52
r 0.620004 6 3 cbr 1000 ------- 1 0.0 3.0 6 6
d 0.620004 5 6 cbr 1000 ------- 1 0.0 3.0 29 29
d 0.620004 4 6 cbr 1000 ------- 1 0.0 3.0 29 29
d 0.620004 2 6 cbr 1000 ------- 1 0.0 3.0 29 29
d 0.620004 1 6 cbr 1000 ------- 1 0.0 3.0 29 29
+ 0.63 0 6 cbr 1000 ------- 1 0.0 3.0 30 30
- 0.63 0 6 cbr 1000 ------- 1 0.0 3.0 30 30
h 0.63 0 6 cbr 1000 ------- 1 0.0 3.0 53 53
r 0.630004 6 3 cbr 1000 ------- 1 0.0 3.0 7 7
d 0.630004 5 6 cbr 1000 ------- 1 0.0 3.0 30 30
d 0.630004 4 6 cbr 1000 ------- 1 0.0 3.0 30 30
d 0.630004 2 6 cbr 1000 ------- 1 0.0 3.0 30 30
d 0.630004 1 6 cbr 1000 ------- 1 0.0 3.0 30 30
+ 0.64 0 6 cbr 1000 ------- 1 0.0 3.0 31 31
- 0.64 0 6 cbr 1000 ------- 1 0.0 3.0 31 31
h 0.64 0 6 cbr 1000 ------- 1 0.0 3.0 54 54
r 0.640004 6 3 cbr 1000 ------- 1 0.0 3.0 8 8
d 0.640004 5 6 cbr 1000 ------- 1 0.0 3.0 31 31
d 0.640004 4 6 cbr 1000 ------- 1 0.0 3.0 31 31
d 0.640004 2 6 cbr 1000 ------- 1 0.0 3.0 31 31
d 0.640004 1 6 cbr 1000 ------- 1 0.0 3.0 31 31
+ 0.65 0 6 cbr 1000 ------- 1 0.0 3.0 32 32
- 0.65 0 6 cbr 1000 ------- 1 0.0 3.0 32 32
h 0.65 0 6 cbr 1000 ------- 1 0.0 3.0 55 55
r 0.650004 6 3 cbr 1000 ------- 1 0.0 3.0 9 9
d 0.650004 5 6 cbr 1000 ------- 1 0.0 3.0 32 32
d 0.650004 4 6 cbr 1000 ------- 1 0.0 3.0 32 32
d 0.650004 2 6 cbr 1000 ------- 1 0.0 3.0 32 32
d 0.650004 1 6 cbr 1000 ------- 1 0.0 3.0 32 32
+ 0.66 0 6 cbr 1000 ------- 1 0.0 3.0 33 33
- 0.66 0 6 cbr 1000 ------- 1 0.0 3.0 33 33
h 0.66 0 6 cbr 1000 ------- 1 0.0 3.0 56 56
r 0.660004 6 3 cbr 1000 ------- 1 0.0 3.0 10 10
d 0.660004 5 6 cbr 1000 ------- 1 0.0 3.0 33 33
d 0.660004 4 6 cbr 1000 ------- 1 0.0 3.0 33 33
d 0.660004 2 6 cbr 1000 ------- 1 0.0 3.0 33 33
d 0.660004 1 6 cbr 1000 ------- 1 0.0 3.0 33 33
+ 0.67 0 6 cbr 1000 ------- 1 0.0 3.0 34 34
- 0.67 0 6 cbr 1000 ------- 1 0.0 3.0 34 34
h 0.67 0 6 cbr 1000 ------- 1 0.0 3.0 57 57
r 0.670004 6 3 cbr 1000 ------- 1 0.0 3.0 11 11
d 0.670004 5 6 cbr 1000 ------- 1 0.0 3.0 34 34
d 0.670004 4 6 cbr 1000 ------- 1 0.0 3.0 34 34
d 0.670004 2 6 cbr 1000 ------- 1 0.0 3.0 34 34
d 0.670004 1 6 cbr 1000 ------- 1 0.0 3.0 34 34
+ 0.68 0 6 cbr 1000 ------- 1 0.0 3.0 35 35
- 0.68 0 6 cbr 1000 ------- 1 0.0 3.0 35 35
h 0.68 0 6 cbr 1000 ------- 1 0.0 3.0 58 58
r 0.680004 6 3 cbr 1000 ------- 1 0.0 3.0 12 12
d 0.680004 5 6 cbr 1000 ------- 1 0.0 3.0 35 35
d 0.680004 4 6 cbr 1000 ------- 1 0.0 3.0 35 35
d 0.680004 2 6 cbr 1000 ------- 1 0.0 3.0 35 35
d 0.680004 1 6 cbr 1000 ------- 1 0.0 3.0 35 35
+ 0.69 0 6 cbr 1000 ------- 1 0.0 3.0 36 36
- 0.69 0 6 cbr 1000 ------- 1 0.0 3.0 36 36
h 0.69 0 6 cbr 1000 ------- 1 0.0 3.0 59 59
r 0.690004 6 3 cbr 1000 ------- 1 0.0 3.0 13 13
d 0.690004 5 6 cbr 1000 ------- 1 0.0 3.0 36 36
d 0.690004 4 6 cbr 1000 ------- 1 0.0 3.0 36 36
d 0.690004 2 6 cbr 1000 ------- 1 0.0 3.0 36 36
d 0.690004 1 6 cbr 1000 ------- 1 0.0 3.0 36 36
+ 0.7 0 6 cbr 1000 ------- 1 0.0 3.0 37 37
- 0.7 0 6 cbr 1000 ------- 1 0.0 3.0 37 37
h 0.7 0 6 cbr 1000 ------- 1 0.0 3.0 60 60
r 0.700004 6 3 cbr 1000 ------- 1 0.0 3.0 14 14
d 0.700004 5 6 cbr 1000 ------- 1 0.0 3.0 37 37
d 0.700004 4 6 cbr 1000 ------- 1 0.0 3.0 37 37
d 0.700004 2 6 cbr 1000 ------- 1 0.0 3.0 37 37
d 0.700004 1 6 cbr 1000 ------- 1 0.0 3.0 37 37
+ 0.71 0 6 cbr 1000 ------- 1 0.0 3.0 38 38
- 0.71 0 6 cbr 1000 ------- 1 0.0 3.0 38 38
h 0.71 0 6 cbr 1000 ------- 1 0.0 3.0 61 61
r 0.710004 6 3 cbr 1000 ------- 1 0.0 3.0 15 15
d 0.710004 5 6 cbr 1000 ------- 1 0.0 3.0 38 38
d 0.710004 4 6 cbr 1000 ------- 1 0.0 3.0 38 38
d 0.710004 2 6 cbr 1000 ------- 1 0.0 3.0 38 38
d 0.710004 1 6 cbr 1000 ------- 1 0.0 3.0 38 38
+ 0.72 0 6 cbr 1000 ------- 1 0.0 3.0 39 39
- 0.72 0 6 cbr 1000 ------- 1 0.0 3.0 39 39
h 0.72 0 6 cbr 1000 ------- 1 0.0 3.0 62 62
r 0.720004 6 3 cbr 1000 ------- 1 0.0 3.0 16 16
d 0.720004 5 6 cbr 1000 ------- 1 0.0 3.0 39 39
d 0.720004 4 6 cbr 1000 ------- 1 0.0 3.0 39 39
d 0.720004 2 6 cbr 1000 ------- 1 0.0 3.0 39 39
d 0.720004 1 6 cbr 1000 ------- 1 0.0 3.0 39 39
+ 0.73 0 6 cbr 1000 ------- 1 0.0 3.0 40 40
- 0.73 0 6 cbr 1000 ------- 1 0.0 3.0 40 40
h 0.73 0 6 cbr 1000 ------- 1 0.0 3.0 63 63
r 0.730004 6 3 cbr 1000 ------- 1 0.0 3.0 17 17
d 0.730004 5 6 cbr 1000 ------- 1 0.0 3.0 40 40
d 0.730004 4 6 cbr 1000 ------- 1 0.0 3.0 40 40
d 0.730004 2 6 cbr 1000 ------- 1 0.0 3.0 40 40
d 0.730004 1 6 cbr 1000 ------- 1 0.0 3.0 40 40
+ 0.74 0 6 cbr 1000 ------- 1 0.0 3.0 41 41
- 0.74 0 6 cbr 1000 ------- 1 0.0 3.0 41 41
h 0.74 0 6 cbr 1000 ------- 1 0.0 3.0 64 64
r 0.740004 6 3 cbr 1000 ------- 1 0.0 3.0 18 18
d 0.740004 5 6 cbr 1000 ------- 1 0.0 3.0 41 41
d 0.740004 4 6 cbr 1000 ------- 1 0.0 3.0 41 41
d 0.740004 2 6 cbr 1000 ------- 1 0.0 3.0 41 41
d 0.740004 1 6 cbr 1000 ------- 1 0.0 3.0 41 41
+ 0.75 0 6 cbr 1000 ------- 1 0.0 3.0 42 42
- 0.75 0 6 cbr 1000 ------- 1 0.0 3.0 42 42
h 0.75 0 6 cbr 1000 ------- 1 0.0 3.0 65 65
r 0.750004 6 3 cbr 1000 ------- 1 0.0 3.0 19 19
d 0.750004 5 6 cbr 1000 ------- 1 0.0 3.0 42 42
d 0.750004 4 6 cbr 1000 ------- 1 0.0 3.0 42 42
d 0.750004 2 6 cbr 1000 ------- 1 0.0 3.0 42 42
d 0.750004 1 6 cbr 1000 ------- 1 0.0 3.0 42 42
+ 0.76 0 6 cbr 1000 ------- 1 0.0 3.0 43 43
- 0.76 0 6 cbr 1000 ------- 1 0.0 3.0 43 43
h 0.76 0 6 cbr 1000 ------- 1 0.0 3.0 66 66
r 0.760004 6 3 cbr 1000 ------- 1 0.0 3.0 20 20
d 0.760004 5 6 cbr 1000 ------- 1 0.0 3.0 43 43
d 0.760004 4 6 cbr 1000 ------- 1 0.0 3.0 43 43
d 0.760004 2 6 cbr 1000 ------- 1 0.0 3.0 43 43
d 0.760004 1 6 cbr 1000 ------- 1 0.0 3.0 43 43
+ 0.77 0 6 cbr 1000 ------- 1 0.0 3.0 44 44
- 0.77 0 6 cbr 1000 ------- 1 0.0 3.0 44 44
h 0.77 0 6 cbr 1000 ------- 1 0.0 3.0 67 67
r 0.770004 6 3 cbr 1000 ------- 1 0.0 3.0 21 21
d 0.770004 5 6 cbr 1000 ------- 1 0.0 3.0 44 44
d 0.770004 4 6 cbr 1000 ------- 1 0.0 3.0 44 44
d 0.770004 2 6 cbr 1000 ------- 1 0.0 3.0 44 44
d 0.770004 1 6 cbr 1000 ------- 1 0.0 3.0 44 44
+ 0.78 0 6 cbr 1000 ------- 1 0.0 3.0 45 45
- 0.78 0 6 cbr 1000 ------- 1 0.0 3.0 45 45
h 0.78 0 6 cbr 1000 ------- 1 0.0 3.0 68 68
r 0.780004 6 3 cbr 1000 ------- 1 0.0 3.0 22 22
d 0.780004 5 6 cbr 1000 ------- 1 0.0 3.0 45 45
d 0.780004 4 6 cbr 1000 ------- 1 0.0 3.0 45 45
d 0.780004 2 6 cbr 1000 ------- 1 0.0 3.0 45 45
d 0.780004 1 6 cbr 1000 ------- 1 0.0 3.0 45 45
+ 0.79 0 6 cbr 1000 ------- 1 0.0 3.0 46 46
- 0.79 0 6 cbr 1000 ------- 1 0.0 3.0 46 46
h 0.79 0 6 cbr 1000 ------- 1 0.0 3.0 69 69
r 0.790004 6 3 cbr 1000 ------- 1 0.0 3.0 23 23
d 0.790004 5 6 cbr 1000 ------- 1 0.0 3.0 46 46
d 0.790004 4 6 cbr 1000 ------- 1 0.0 3.0 46 46
d 0.790004 2 6 cbr 1000 ------- 1 0.0 3.0 46 46
d 0.790004 1 6 cbr 1000 ------- 1 0.0 3.0 46 46
+ 0.8 0 6 cbr 1000 ------- 1 0.0 3.0 47 47
- 0.8 0 6 cbr 1000 ------- 1 0.0 3.0 47 47
h 0.8 0 6 cbr 1000 ------- 1 0.0 3.0 70 70
r 0.800004 6 3 cbr 1000 ------- 1 0.0 3.0 24 24
d 0.800004 5 6 cbr 1000 ------- 1 0.0 3.0 47 47
d 0.800004 4 6 cbr 1000 ------- 1 0.0 3.0 47 47
d 0.800004 2 6 cbr 1000 ------- 1 0.0 3.0 47 47
d 0.800004 1 6 cbr 1000 ------- 1 0.0 3.0 47 47
+ 0.81 0 6 cbr 1000 ------- 1 0.0 3.0 48 48
- 0.81 0 6 cbr 1000 ------- 1 0.0 3.0 48 48
h 0.81 0 6 cbr 1000 ------- 1 0.0 3.0 71 71
r 0.810004 6 3 cbr 1000 ------- 1 0.0 3.0 25 25
d 0.810004 5 6 cbr 1000 ------- 1 0.0 3.0 48 48
d 0.810004 4 6 cbr 1000 ------- 1 0.0 3.0 48 48
d 0.810004 2 6 cbr 1000 ------- 1 0.0 3.0 48 48
d 0.810004 1 6 cbr 1000 ------- 1 0.0 3.0 48 48
+ 0.82 0 6 cbr 1000 ------- 1 0.0 3.0 49 49
- 0.82 0 6 cbr 1000 ------- 1 0.0 3.0 49 49
h 0.82 0 6 cbr 1000 ------- 1 0.0 3.0 72 72
r 0.820004 6 3 cbr 1000 ------- 1 0.0 3.0 26 26
d 0.820004 5 6 cbr 1000 ------- 1 0.0 3.0 49 49
d 0.820004 4 6 cbr 1000 ------- 1 0.0 3.0 49 49
d 0.820004 2 6 cbr 1000 ------- 1 0.0 3.0 49 49
d 0.820004 1 6 cbr 1000 ------- 1 0.0 3.0 49 49
+ 0.83 0 6 cbr 1000 ------- 1 0.0 3.0 50 50
- 0.83 0 6 cbr 1000 ------- 1 0.0 3.0 50 50
h 0.83 0 6 cbr 1000 ------- 1 0.0 3.0 73 73
r 0.830004 6 3 cbr 1000 ------- 1 0.0 3.0 27 27
d 0.830004 5 6 cbr 1000 ------- 1 0.0 3.0 50 50
d 0.830004 4 6 cbr 1000 ------- 1 0.0 3.0 50 50
d 0.830004 2 6 cbr 1000 ------- 1 0.0 3.0 50 50
d 0.830004 1 6 cbr 1000 ------- 1 0.0 3.0 50 50
+ 0.84 0 6 cbr 1000 ------- 1 0.0 3.0 51 51
- 0.84 0 6 cbr 1000 ------- 1 0.0 3.0 51 51
h 0.84 0 6 cbr 1000 ------- 1 0.0 3.0 74 74
r 0.840004 6 3 cbr 1000 ------- 1 0.0 3.0 28 28
d 0.840004 5 6 cbr 1000 ------- 1 0.0 3.0 51 51
d 0.840004 4 6 cbr 1000 ------- 1 0.0 3.0 51 51
d 0.840004 2 6 cbr 1000 ------- 1 0.0 3.0 51 51
d 0.840004 1 6 cbr 1000 ------- 1 0.0 3.0 51 51
+ 0.85 0 6 cbr 1000 ------- 1 0.0 3.0 52 52
- 0.85 0 6 cbr 1000 ------- 1 0.0 3.0 52 52
h 0.85 0 6 cbr 1000 ------- 1 0.0 3.0 75 75
r 0.850004 6 3 cbr 1000 ------- 1 0.0 3.0 29 29
d 0.850004 5 6 cbr 1000 ------- 1 0.0 3.0 52 52
d 0.850004 4 6 cbr 1000 ------- 1 0.0 3.0 52 52
d 0.850004 2 6 cbr 1000 ------- 1 0.0 3.0 52 52
d 0.850004 1 6 cbr 1000 ------- 1 0.0 3.0 52 52
+ 0.86 0 6 cbr 1000 ------- 1 0.0 3.0 53 53
- 0.86 0 6 cbr 1000 ------- 1 0.0 3.0 53 53
h 0.86 0 6 cbr 1000 ------- 1 0.0 3.0 76 76
r 0.860004 6 3 cbr 1000 ------- 1 0.0 3.0 30 30
d 0.860004 5 6 cbr 1000 ------- 1 0.0 3.0 53 53
d 0.860004 4 6 cbr 1000 ------- 1 0.0 3.0 53 53
d 0.860004 2 6 cbr 1000 ------- 1 0.0 3.0 53 53
d 0.860004 1 6 cbr 1000 ------- 1 0.0 3.0 53 53
+ 0.87 0 6 cbr 1000 ------- 1 0.0 3.0 54 54
- 0.87 0 6 cbr 1000 ------- 1 0.0 3.0 54 54
h 0.87 0 6 cbr 1000 ------- 1 0.0 3.0 77 77
r 0.870004 6 3 cbr 1000 ------- 1 0.0 3.0 31 31
d 0.870004 5 6 cbr 1000 ------- 1 0.0 3.0 54 54
d 0.870004 4 6 cbr 1000 ------- 1 0.0 3.0 54 54
d 0.870004 2 6 cbr 1000 ------- 1 0.0 3.0 54 54
d 0.870004 1 6 cbr 1000 ------- 1 0.0 3.0 54 54
+ 0.88 0 6 cbr 1000 ------- 1 0.0 3.0 55 55
- 0.88 0 6 cbr 1000 ------- 1 0.0 3.0 55 55
h 0.88 0 6 cbr 1000 ------- 1 0.0 3.0 78 78
r 0.880004 6 3 cbr 1000 ------- 1 0.0 3.0 32 32
d 0.880004 5 6 cbr 1000 ------- 1 0.0 3.0 55 55
d 0.880004 4 6 cbr 1000 ------- 1 0.0 3.0 55 55
d 0.880004 2 6 cbr 1000 ------- 1 0.0 3.0 55 55
d 0.880004 1 6 cbr 1000 ------- 1 0.0 3.0 55 55
+ 0.89 0 6 cbr 1000 ------- 1 0.0 3.0 56 56
- 0.89 0 6 cbr 1000 ------- 1 0.0 3.0 56 56
h 0.89 0 6 cbr 1000 ------- 1 0.0 3.0 79 79
r 0.890004 6 3 cbr 1000 ------- 1 0.0 3.0 33 33
d 0.890004 5 6 cbr 1000 ------- 1 0.0 3.0 56 56
d 0.890004 4 6 cbr 1000 ------- 1 0.0 3.0 56 56
d 0.890004 2 6 cbr 1000 ------- 1 0.0 3.0 56 56
d 0.890004 1 6 cbr 1000 ------- 1 0.0 3.0 56 56
+ 0.9 0 6 cbr 1000 ------- 1 0.0 3.0 57 57
- 0.9 0 6 cbr 1000 ------- 1 0.0 3.0 57 57
h 0.9 0 6 cbr 1000 ------- 1 0.0 3.0 80 80
r 0.900004 6 3 cbr 1000 ------- 1 0.0 3.0 34 34
d 0.900004 5 6 cbr 1000 ------- 1 0.0 3.0 57 57
d 0.900004 4 6 cbr 1000 ------- 1 0.0 3.0 57 57
d 0.900004 2 6 cbr 1000 ------- 1 0.0 3.0 57 57
d 0.900004 1 6 cbr 1000 ------- 1 0.0 3.0 57 57
+ 0.91 0 6 cbr 1000 ------- 1 0.0 3.0 58 58
- 0.91 0 6 cbr 1000 ------- 1 0.0 3.0 58 58
h 0.91 0 6 cbr 1000 ------- 1 0.0 3.0 81 81
r 0.910004 6 3 cbr 1000 ------- 1 0.0 3.0 35 35
d 0.910004 5 6 cbr 1000 ------- 1 0.0 3.0 58 58
d 0.910004 4 6 cbr 1000 ------- 1 0.0 3.0 58 58
d 0.910004 2 6 cbr 1000 ------- 1 0.0 3.0 58 58
d 0.910004 1 6 cbr 1000 ------- 1 0.0 3.0 58 58
+ 0.92 0 6 cbr 1000 ------- 1 0.0 3.0 59 59
- 0.92 0 6 cbr 1000 ------- 1 0.0 3.0 59 59
h 0.92 0 6 cbr 1000 ------- 1 0.0 3.0 82 82
r 0.920004 6 3 cbr 1000 ------- 1 0.0 3.0 36 36
d 0.920004 5 6 cbr 1000 ------- 1 0.0 3.0 59 59
d 0.920004 4 6 cbr 1000 ------- 1 0.0 3.0 59 59
d 0.920004 2 6 cbr 1000 ------- 1 0.0 3.0 59 59
d 0.920004 1 6 cbr 1000 ------- 1 0.0 3.0 59 59
+ 0.93 0 6 cbr 1000 ------- 1 0.0 3.0 60 60
- 0.93 0 6 cbr 1000 ------- 1 0.0 3.0 60 60
h 0.93 0 6 cbr 1000 ------- 1 0.0 3.0 83 83
r 0.930004 6 3 cbr 1000 ------- 1 0.0 3.0 37 37
d 0.930004 5 6 cbr 1000 ------- 1 0.0 3.0 60 60
d 0.930004 4 6 cbr 1000 ------- 1 0.0 3.0 60 60
d 0.930004 2 6 cbr 1000 ------- 1 0.0 3.0 60 60
d 0.930004 1 6 cbr 1000 ------- 1 0.0 3.0 60 60
+ 0.94 0 6 cbr 1000 ------- 1 0.0 3.0 61 61
- 0.94 0 6 cbr 1000 ------- 1 0.0 3.0 61 61
h 0.94 0 6 cbr 1000 ------- 1 0.0 3.0 84 84
r 0.940004 6 3 cbr 1000 ------- 1 0.0 3.0 38 38
d 0.940004 5 6 cbr 1000 ------- 1 0.0 3.0 61 61
d 0.940004 4 6 cbr 1000 ------- 1 0.0 3.0 61 61
d 0.940004 2 6 cbr 1000 ------- 1 0.0 3.0 61 61
d 0.940004 1 6 cbr 1000 ------- 1 0.0 3.0 61 61
+ 0.95 0 6 cbr 1000 ------- 1 0.0 3.0 62 62
- 0.95 0 6 cbr 1000 ------- 1 0.0 3.0 62 62
h 0.95 0 6 cbr 1000 ------- 1 0.0 3.0 85 85
r 0.950004 6 3 cbr 1000 ------- 1 0.0 3.0 39 39
d 0.950004 5 6 cbr 1000 ------- 1 0.0 3.0 62 62
d 0.950004 4 6 cbr 1000 ------- 1 0.0 3.0 62 62
d 0.950004 2 6 cbr 1000 ------- 1 0.0 3.0 62 62
d 0.950004 1 6 cbr 1000 ------- 1 0.0 3.0 62 62
+ 0.96 0 6 cbr 1000 ------- 1 0.0 3.0 63 63
- 0.96 0 6 cbr 1000 ------- 1 0.0 3.0 63 63
h 0.96 0 6 cbr 1000 ------- 1 0.0 3.0 86 86
r 0.960004 6 3 cbr 1000 ------- 1 0.0 3.0 40 40
d 0.960004 5 6 cbr 1000 ------- 1 0.0 3.0 63 63
d 0.960004 4 6 cbr 1000 ------- 1 0.0 3.0 63 63
d 0.960004 2 6 cbr 1000 ------- 1 0.0 3.0 63 63
d 0.960004 1 6 cbr 1000 ------- 1 0.0 3.0 63 63
+ 0.97 0 6 cbr 1000 ------- 1 0.0 3.0 64 64
- 0.97 0 6 cbr 1000 ------- 1 0.0 3.0 64 64
h 0.97 0 6 cbr 1000 ------- 1 0.0 3.0 87 87
r 0.970004 6 3 cbr 1000 ------- 1 0.0 3.0 41 41
d 0.970004 5 6 cbr 1000 ------- 1 0.0 3.0 64 64
d 0.970004 4 6 cbr 1000 ------- 1 0.0 3.0 64 64
d 0.970004 2 6 cbr 1000 ------- 1 0.0 3.0 64 64
d 0.970004 1 6 cbr 1000 ------- 1 0.0 3.0 64 64
+ 0.98 0 6 cbr 1000 ------- 1 0.0 3.0 65 65
- 0.98 0 6 cbr 1000 ------- 1 0.0 3.0 65 65
h 0.98 0 6 cbr 1000 ------- 1 0.0 3.0 88 88
r 0.980004 6 3 cbr 1000 ------- 1 0.0 3.0 42 42
d 0.980004 5 6 cbr 1000 ------- 1 0.0 3.0 65 65
d 0.980004 4 6 cbr 1000 ------- 1 0.0 3.0 65 65
d 0.980004 2 6 cbr 1000 ------- 1 0.0 3.0 65 65
d 0.980004 1 6 cbr 1000 ------- 1 0.0 3.0 65 65
+ 0.99 0 6 cbr 1000 ------- 1 0.0 3.0 66 66
- 0.99 0 6 cbr 1000 ------- 1 0.0 3.0 66 66
h 0.99 0 6 cbr 1000 ------- 1 0.0 3.0 89 89
r 0.990004 6 3 cbr 1000 ------- 1 0.0 3.0 43 43
d 0.990004 5 6 cbr 1000 ------- 1 0.0 3.0 66 66
d 0.990004 4 6 cbr 1000 ------- 1 0.0 3.0 66 66
d 0.990004 2 6 cbr 1000 ------- 1 0.0 3.0 66 66
d 0.990004 1 6 cbr 1000 ------- 1 0.0 3.0 66 66
+ 1 0 6 cbr 1000 ------- 1 0.0 3.0 67 67
- 1 0 6 cbr 1000 ------- 1 0.0 3.0 67 67
h 1 0 6 cbr 1000 ------- 1 0.0 3.0 90 90
r 1.000004 6 3 cbr 1000 ------- 1 0.0 3.0 44 44
d 1.000004 5 6 cbr 1000 ------- 1 0.0 3.0 67 67
d 1.000004 4 6 cbr 1000 ------- 1 0.0 3.0 67 67
d 1.000004 2 6 cbr 1000 ------- 1 0.0 3.0 67 67
d 1.000004 1 6 cbr 1000 ------- 1 0.0 3.0 67 67
+ 1.01 0 6 cbr 1000 ------- 1 0.0 3.0 68 68
- 1.01 0 6 cbr 1000 ------- 1 0.0 3.0 68 68
h 1.01 0 6 cbr 1000 ------- 1 0.0 3.0 91 91
r 1.010004 6 3 cbr 1000 ------- 1 0.0 3.0 45 45
d 1.010004 5 6 cbr 1000 ------- 1 0.0 3.0 68 68
d 1.010004 4 6 cbr 1000 ------- 1 0.0 3.0 68 68
d 1.010004 2 6 cbr 1000 ------- 1 0.0 3.0 68 68
d 1.010004 1 6 cbr 1000 ------- 1 0.0 3.0 68 68
+ 1.02 0 6 cbr 1000 ------- 1 0.0 3.0 69 69
- 1.02 0 6 cbr 1000 ------- 1 0.0 3.0 69 69
h 1.02 0 6 cbr 1000 ------- 1 0.0 3.0 92 92
r 1.020004 6 3 cbr 1000 ------- 1 0.0 3.0 46 46
d 1.020004 5 6 cbr 1000 ------- 1 0.0 3.0 69 69
d 1.020004 4 6 cbr 1000 ------- 1 0.0 3.0 69 69
d 1.020004 2 6 cbr 1000 ------- 1 0.0 3.0 69 69
d 1.020004 1 6 cbr 1000 ------- 1 0.0 3.0 69 69
+ 1.03 0 6 cbr 1000 ------- 1 0.0 3.0 70 70
- 1.03 0 6 cbr 1000 ------- 1 0.0 3.0 70 70
h 1.03 0 6 cbr 1000 ------- 1 0.0 3.0 93 93
r 1.030004 6 3 cbr 1000 ------- 1 0.0 3.0 47 47
d 1.030004 5 6 cbr 1000 ------- 1 0.0 3.0 70 70
d 1.030004 4 6 cbr 1000 ------- 1 0.0 3.0 70 70
d 1.030004 2 6 cbr 1000 ------- 1 0.0 3.0 70 70
d 1.030004 1 6 cbr 1000 ------- 1 0.0 3.0 70 70
+ 1.04 0 6 cbr 1000 ------- 1 0.0 3.0 71 71
- 1.04 0 6 cbr 1000 ------- 1 0.0 3.0 71 71
h 1.04 0 6 cbr 1000 ------- 1 0.0 3.0 94 94
r 1.040004 6 3 cbr 1000 ------- 1 0.0 3.0 48 48
d 1.040004 5 6 cbr 1000 ------- 1 0.0 3.0 71 71
d 1.040004 4 6 cbr 1000 ------- 1 0.0 3.0 71 71
d 1.040004 2 6 cbr 1000 ------- 1 0.0 3.0 71 71
d 1.040004 1 6 cbr 1000 ------- 1 0.0 3.0 71 71
+ 1.05 0 6 cbr 1000 ------- 1 0.0 3.0 72 72
- 1.05 0 6 cbr 1000 ------- 1 0.0 3.0 72 72
h 1.05 0 6 cbr 1000 ------- 1 0.0 3.0 95 95
r 1.050004 6 3 cbr 1000 ------- 1 0.0 3.0 49 49
d 1.050004 5 6 cbr 1000 ------- 1 0.0 3.0 72 72
d 1.050004 4 6 cbr 1000 ------- 1 0.0 3.0 72 72
d 1.050004 2 6 cbr 1000 ------- 1 0.0 3.0 72 72
d 1.050004 1 6 cbr 1000 ------- 1 0.0 3.0 72 72
+ 1.06 0 6 cbr 1000 ------- 1 0.0 3.0 73 73
- 1.06 0 6 cbr 1000 ------- 1 0.0 3.0 73 73
h 1.06 0 6 cbr 1000 ------- 1 0.0 3.0 96 96
r 1.060004 6 3 cbr 1000 ------- 1 0.0 3.0 50 50
d 1.060004 5 6 cbr 1000 ------- 1 0.0 3.0 73 73
d 1.060004 4 6 cbr 1000 ------- 1 0.0 3.0 73 73
d 1.060004 2 6 cbr 1000 ------- 1 0.0 3.0 73 73
d 1.060004 1 6 cbr 1000 ------- 1 0.0 3.0 73 73
+ 1.07 0 6 cbr 1000 ------- 1 0.0 3.0 74 74
- 1.07 0 6 cbr 1000 ------- 1 0.0 3.0 74 74
h 1.07 0 6 cbr 1000 ------- 1 0.0 3.0 97 97
r 1.070004 6 3 cbr 1000 ------- 1 0.0 3.0 51 51
d 1.070004 5 6 cbr 1000 ------- 1 0.0 3.0 74 74
d 1.070004 4 6 cbr 1000 ------- 1 0.0 3.0 74 74
d 1.070004 2 6 cbr 1000 ------- 1 0.0 3.0 74 74
d 1.070004 1 6 cbr 1000 ------- 1 0.0 3.0 74 74
+ 1.08 0 6 cbr 1000 ------- 1 0.0 3.0 75 75
- 1.08 0 6 cbr 1000 ------- 1 0.0 3.0 75 75
h 1.08 0 6 cbr 1000 ------- 1 0.0 3.0 98 98
r 1.080004 6 3 cbr 1000 ------- 1 0.0 3.0 52 52
d 1.080004 5 6 cbr 1000 ------- 1 0.0 3.0 75 75
d 1.080004 4 6 cbr 1000 ------- 1 0.0 3.0 75 75
d 1.080004 2 6 cbr 1000 ------- 1 0.0 3.0 75 75
d 1.080004 1 6 cbr 1000 ------- 1 0.0 3.0 75 75
+ 1.09 0 6 cbr 1000 ------- 1 0.0 3.0 76 76
- 1.09 0 6 cbr 1000 ------- 1 0.0 3.0 76 76
h 1.09 0 6 cbr 1000 ------- 1 0.0 3.0 99 99
r 1.090004 6 3 cbr 1000 ------- 1 0.0 3.0 53 53
d 1.090004 5 6 cbr 1000 ------- 1 0.0 3.0 76 76
d 1.090004 4 6 cbr 1000 ------- 1 0.0 3.0 76 76
d 1.090004 2 6 cbr 1000 ------- 1 0.0 3.0 76 76
d 1.090004 1 6 cbr 1000 ------- 1 0.0 3.0 76 76
+ 1.1 0 6 cbr 1000 ------- 1 0.0 3.0 77 77
- 1.1 0 6 cbr 1000 ------- 1 0.0 3.0 77 77
h 1.1 0 6 cbr 1000 ------- 1 0.0 3.0 100 100
r 1.100004 6 3 cbr 1000 ------- 1 0.0 3.0 54 54
d 1.100004 5 6 cbr 1000 ------- 1 0.0 3.0 77 77
d 1.100004 4 6 cbr 1000 ------- 1 0.0 3.0 77 77
d 1.100004 2 6 cbr 1000 ------- 1 0.0 3.0 77 77
d 1.100004 1 6 cbr 1000 ------- 1 0.0 3.0 77 77
+ 1.11 0 6 cbr 1000 ------- 1 0.0 3.0 78 78
- 1.11 0 6 cbr 1000 ------- 1 0.0 3.0 78 78
h 1.11 0 6 cbr 1000 ------- 1 0.0 3.0 101 101
r 1.110004 6 3 cbr 1000 ------- 1 0.0 3.0 55 55
d 1.110004 5 6 cbr 1000 ------- 1 0.0 3.0 78 78
d 1.110004 4 6 cbr 1000 ------- 1 0.0 3.0 78 78
d 1.110004 2 6 cbr 1000 ------- 1 0.0 3.0 78 78
d 1.110004 1 6 cbr 1000 ------- 1 0.0 3.0 78 78
+ 1.12 0 6 cbr 1000 ------- 1 0.0 3.0 79 79
- 1.12 0 6 cbr 1000 ------- 1 0.0 3.0 79 79
h 1.12 0 6 cbr 1000 ------- 1 0.0 3.0 102 102
r 1.120004 6 3 cbr 1000 ------- 1 0.0 3.0 56 56
d 1.120004 5 6 cbr 1000 ------- 1 0.0 3.0 79 79
d 1.120004 4 6 cbr 1000 ------- 1 0.0 3.0 79 79
d 1.120004 2 6 cbr 1000 ------- 1 0.0 3.0 79 79
d 1.120004 1 6 cbr 1000 ------- 1 0.0 3.0 79 79
+ 1.13 0 6 cbr 1000 ------- 1 0.0 3.0 80 80
- 1.13 0 6 cbr 1000 ------- 1 0.0 3.0 80 80
h 1.13 0 6 cbr 1000 ------- 1 0.0 3.0 103 103
r 1.130004 6 3 cbr 1000 ------- 1 0.0 3.0 57 57
d 1.130004 5 6 cbr 1000 ------- 1 0.0 3.0 80 80
d 1.130004 4 6 cbr 1000 ------- 1 0.0 3.0 80 80
d 1.130004 2 6 cbr 1000 ------- 1 0.0 3.0 80 80
d 1.130004 1 6 cbr 1000 ------- 1 0.0 3.0 80 80
+ 1.14 0 6 cbr 1000 ------- 1 0.0 3.0 81 81
- 1.14 0 6 cbr 1000 ------- 1 0.0 3.0 81 81
h 1.14 0 6 cbr 1000 ------- 1 0.0 3.0 104 104