V -t * -v 1.0a5 -a 0
A -t * -n 1 -p 0 -o 0x7fffffff -c 30 -a 1
A -t * -h 1 -m 1073741823 -s 0
c -t * -i 1 -n Red
n -t * -a 4 -s 4 -S UP -v circle -c black -i black
n -t * -a 0 -s 0 -S UP -v circle -c black -i black
n -t * -a 5 -s 5 -S UP -v circle -c black -i black
n -t * -a 1 -s 1 -S UP -v circle -c black -i black
n -t * -a 2 -s 2 -S UP -v circle -c black -i black
n -t * -a 3 -s 3 -S UP -v circle -c black -i black
l -t * -s 0 -d 1 -S UP -r 1000000 -D 0.01 -c black
l -t * -s 0 -d 2 -S UP -r 1000000 -D 0.01 -c black
l -t * -s 0 -d 3 -S UP -r 1000000 -D 0.01 -c black
l -t * -s 0 -d 4 -S UP -r 1000000 -D 0.01 -c black
l -t * -s 0 -d 5 -S UP -r 1000000 -D 0.01 -c black
l -t * -s 1 -d 2 -S UP -r 1000000 -D 0.01 -c black
l -t * -s 1 -d 3 -S UP -r 1000000 -D 0.01 -c black
l -t * -s 1 -d 4 -S UP -r 1000000 -D 0.01 -c black
l -t * -s 1 -d 5 -S UP -r 1000000 -D 0.01 -c black
l -t * -s 2 -d 3 -S UP -r 1000000 -D 0.01 -c black
l -t * -s 2 -d 4 -S UP -r 1000000 -D 0.01 -c black
l -t * -s 2 -d 5 -S UP -r 1000000 -D 0.01 -c black
l -t * -s 3 -d 4 -S UP -r 1000000 -D 0.01 -c black
l -t * -s 3 -d 5 -S UP -r 1000000 -D 0.01 -c black
l -t * -s 4 -d 5 -S UP -r 1000000 -D 0.01 -c black
+ -t 0.1 -s 0 -d 3 -p tcp -e 40 -c 1 -i 0 -a 1 -x {0.0 3.0 0 ------- null}
- -t 0.1 -s 0 -d 3 -p tcp -e 40 -c 1 -i 0 -a 1 -x {0.0 3.0 0 ------- null}
h -t 0.1 -s 0 -d 3 -p tcp -e 40 -c 1 -i 0 -a 1 -x {0.0 3.0 -1 ------- null}
r -t 0.11032 -s 0 -d 3 -p tcp -e 40 -c 1 -i 0 -a 1 -x {0.0 3.0 0 ------- null}
+ -t 0.11032 -s 3 -d 0 -p ack -e 40 -c 1 -i 1 -a 1 -x {3.0 0.0 0 ------- null}
- -t 0.11032 -s 3 -d 0 -p ack -e 40 -c 1 -i 1 -a 1 -x {3.0 0.0 0 ------- null}
h -t 0.11032 -s 3 -d 0 -p ack -e 40 -c 1 -i 1 -a 1 -x {3.0 0.0 -1 ------- null}
r -t 0.12064 -s 3 -d 0 -p ack -e 40 -c 1 -i 1 -a 1 -x {3.0 0.0 0 ------- null}
+ -t 0.12064 -s 0 -d 3 -p tcp -e 1040 -c 1 -i 2 -a 1 -x {0.0 3.0 1 ------- null}
- -t 0.12064 -s 0 -d 3 -p tcp -e 1040 -c 1 -i 2 -a 1 -x {0.0 3.0 1 ------- null}
h -t 0.12064 -s 0 -d 3 -p tcp -e 1040 -c 1 -i 2 -a 1 -x {0.0 3.0 -1 ------- null}
+ -t 0.12064 -s 0 -d 3 -p tcp -e 1040 -c 1 -i 3 -a 1 -x {0.0 3.0 2 ------- null}
- -t 0.12896 -s 0 -d 3 -p tcp -e 1040 -c 1 -i 3 -a 1 -x {0.0 3.0 2 ------- null}
h -t 0.12896 -s 0 -d 3 -p tcp -e 1040 -c 1 -i 3 -a 1 -x {0.0 3.0 -1 ------- null}
r -t 0.13896 -s 0 -d 3 -p tcp -e 1040 -c 1 -i 2 -a 1 -x {0.0 3.0 1 ------- null}
+ -t 0.13896 -s 3 -d 0 -p ack -e 40 -c 1 -i 4 -a 1 -x {3.0 0.0 1 ------- null}
- -t 0.13896 -s 3 -d 0 -p ack -e 40 -c 1 -i 4 -a 1 -x {3.0 0.0 1 ------- null}
h -t 0.13896 -s 3 -d 0 -p ack -e 40 -c 1 -i 4 -a 1 -x {3.0 0.0 -1 ------- null}
r -t 0.14728 -s 0 -d 3 -p tcp -e 1040 -c 1 -i 3 -a 1 -x {0.0 3.0 2 ------- null}
+ -t 0.14728 -s 3 -d 0 -p ack -e 40 -c 1 -i 5 -a 1 -x {3.0 0.0 2 ------- null}
- -t 0.14728 -s 3 -d 0 -p ack -e 40 -c 1 -i 5 -a 1 -x {3.0 0.0 2 ------- null}
h -t 0.14728 -s 3 -d 0 -p ack -e 40 -c 1 -i 5 -a 1 -x {3.0 0.0 -1 ------- null}
r -t 0.14928 -s 3 -d 0 -p ack -e 40 -c 1 -i 4 -a 1 -x {3.0 0.0 1 ------- null}
+ -t 0.14928 -s 0 -d 3 -p tcp -e 1040 -c 1 -i 6 -a 1 -x {0.0 3.0 3 ------- null}
- -t 0.14928 -s 0 -d 3 -p tcp -e 1040 -c 1 -i 6 -a 1 -x {0.0 3.0 3 ------- null}
h -t 0.14928 -s 0 -d 3 -p tcp -e 1040 -c 1 -i 6 -a 1 -x {0.0 3.0 -1 ------- null}
+ -t 0.14928 -s 0 -d 3 -p tcp -e 1040 -c 1 -i 7 -a 1 -x {0.0 3.0 4 ------- null}
r -t 0.1576 -s 3 -d 0 -p ack -e 40 -c 1 -i 5 -a 1 -x {3.0 0.0 2 ------- null}
+ -t 0.1576 -s 0 -d 3 -p tcp -e 1040 -c 1 -i 8 -a 1 -x {0.0 3.0 5 ------- null}
+ -t 0.1576 -s 0 -d 3 -p tcp -e 1040 -c 1 -i 9 -a 1 -x {0.0 3.0 6 ------- null}
- -t 0.1576 -s 0 -d 3 -p tcp -e 1040 -c 1 -i 7 -a 1 -x {0.0 3.0 4 ------- null}
h -t 0.1576 -s 0 -d 3 -p tcp -e 1040 -c 1 -i 7 -a 1 -x {0.0 3.0 -1 ------- null}
- -t 0.16592 -s 0 -d 3 -p tcp -e 1040 -c 1 -i 8 -a 1 -x {0.0 3.0 5 ------- null}
h -t 0.16592 -s 0 -d 3 -p tcp -e 1040 -c 1 -i 8 -a 1 -x {0.0 3.0 -1 ------- null}
r -t 0.1676 -s 0 -d 3 -p tcp -e 1040 -c 1 -i 6 -a 1 -x {0.0 3.0 3 ------- null}
+ -t 0.1676 -s 3 -d 0 -p ack -e 40 -c 1 -i 10 -a 1 -x {3.0 0.0 3 ------- null}
- -t 0.1676 -s 3 -d 0 -p ack -e 40 -c 1 -i 10 -a 1 -x {3.0 0.0 3 ------- null}
h -t 0.1676 -s 3 -d 0 -p ack -e 40 -c 1 -i 10 -a 1 -x {3.0 0.0 -1 ------- null}
- -t 0.17424 -s 0 -d 3 -p tcp -e 1040 -c 1 -i 9 -a 1 -x {0.0 3.0 6 ------- null}
h -t 0.17424 -s 0 -d 3 -p tcp -e 1040 -c 1 -i 9 -a 1 -x {0.0 3.0 -1 ------- null}
r -t 0.17592 -s 0 -d 3 -p tcp -e 1040 -c 1 -i 7 -a 1 -x {0.0 3.0 4 ------- null}
+ -t 0.17592 -s 3 -d 0 -p ack -e 40 -c 1 -i 11 -a 1 -x {3.0 0.0 4 ------- null}
- -t 0.17592 -s 3 -d 0 -p ack -e 40 -c 1 -i 11 -a 1 -x {3.0 0.0 4 ------- null}
h -t 0.17592 -s 3 -d 0 -p ack -e 40 -c 1 -i 11 -a 1 -x {3.0 0.0 -1 ------- null}
r -t 0.17792 -s 3 -d 0 -p ack -e 40 -c 1 -i 10 -a 1 -x {3.0 0.0 3 ------- null}
+ -t 0.17792 -s 0 -d 3 -p tcp -e 1040 -c 1 -i 12 -a 1 -x {0.0 3.0 7 ------- null}
+ -t 0.17792 -s 0 -d 3 -p tcp -e 1040 -c 1 -i 13 -a 1 -x {0.0 3.0 8 ------- null}
- -t 0.18256 -s 0 -d 3 -p tcp -e 1040 -c 1 -i 12 -a 1 -x {0.0 3.0 7 ------- null}
h -t 0.18256 -s 0 -d 3 -p tcp -e 1040 -c 1 -i 12 -a 1 -x {0.0 3.0 -1 ------- null}
r -t 0.18424 -s 0 -d 3 -p tcp -e 1040 -c 1 -i 8 -a 1 -x {0.0 3.0 5 ------- null}
+ -t 0.18424 -s 3 -d 0 -p ack -e 40 -c 1 -i 14 -a 1 -x {3.0 0.0 5 ------- null}
- -t 0.18424 -s 3 -d 0 -p ack -e 40 -c 1 -i 14 -a 1 -x {3.0 0.0 5 ------- null}
h -t 0.18424 -s 3 -d 0 -p ack -e 40 -c 1 -i 14 -a 1 -x {3.0 0.0 -1 ------- null}
r -t 0.18624 -s 3 -d 0 -p ack -e 40 -c 1 -i 11 -a 1 -x {3.0 0.0 4 ------- null}
+ -t 0.18624 -s 0 -d 3 -p tcp -e 1040 -c 1 -i 15 -a 1 -x {0.0 3.0 9 ------- null}
+ -t 0.18624 -s 0 -d 3 -p tcp -e 1040 -c 1 -i 16 -a 1 -x {0.0 3.0 10 ------- null}
- -t 0.19088 -s 0 -d 3 -p tcp -e 1040 -c 1 -i 13 -a 1 -x {0.0 3.0 8 ------- null}
h -t 0.19088 -s 0 -d 3 -p tcp -e 1040 -c 1 -i 13 -a 1 -x {0.0 3.0 -1 ------- null}
r -t 0.19256 -s 0 -d 3 -p tcp -e 1040 -c 1 -i 9 -a 1 -x {0.0 3.0 6 ------- null}
+ -t 0.19256 -s 3 -d 0 -p ack -e 40 -c 1 -i 17 -a 1 -x {3.0 0.0 6 ------- null}
- -t 0.19256 -s 3 -d 0 -p ack -e 40 -c 1 -i 17 -a 1 -x {3.0 0.0 6 ------- null}
h -t 0.19256 -s 3 -d 0 -p ack -e 40 -c 1 -i 17 -a 1 -x {3.0 0.0 -1 ------- null}
r -t 0.19456 -s 3 -d 0 -p ack -e 40 -c 1 -i 14 -a 1 -x {3.0 0.0 5 ------- null}
+ -t 0.19456 -s 0 -d 3 -p tcp -e 1040 -c 1 -i 18 -a 1 -x {0.0 3.0 11 ------- null}
+ -t 0.19456 -s 0 -d 3 -p tcp -e 1040 -c 1 -i 19 -a 1 -x {0.0 3.0 12 ------- null}
- -t 0.1992 -s 0 -d 3 -p tcp -e 1040 -c 1 -i 15 -a 1 -x {0.0 3.0 9 ------- null}
h -t 0.1992 -s 0 -d 3 -p tcp -e 1040 -c 1 -i 15 -a 1 -x {0.0 3.0 -1 ------- null}
r -t 0.20088 -s 0 -d 3 -p tcp -e 1040 -c 1 -i 12 -a 1 -x {0.0 3.0 7 ------- null}
+ -t 0.20088 -s 3 -d 0 -p ack -e 40 -c 1 -i 20 -a 1 -x {3.0 0.0 7 ------- null}
- -t 0.20088 -s 3 -d 0 -p ack -e 40 -c 1 -i 20 -a 1 -x {3.0 0.0 7 ------- null}
h -t 0.20088 -s 3 -d 0 -p ack -e 40 -c 1 -i 20 -a 1 -x {3.0 0.0 -1 ------- null}
r -t 0.20288 -s 3 -d 0 -p ack -e 40 -c 1 -i 17 -a 1 -x {3.0 0.0 6 ------- null}
+ -t 0.20288 -s 0 -d 3 -p tcp -e 1040 -c 1 -i 21 -a 1 -x {0.0 3.0 13 ------- null}
+ -t 0.20288 -s 0 -d 3 -p tcp -e 1040 -c 1 -i 22 -a 1 -x {0.0 3.0 14 ------- null}
- -t 0.20752 -s 0 -d 3 -p tcp -e 1040 -c 1 -i 16 -a 1 -x {0.0 3.0 10 ------- null}
h -t 0.20752 -s 0 -d 3 -p tcp -e 1040 -c 1 -i 16 -a 1 -x {0.0 3.0 -1 ------- null}
r -t 0.2092 -s 0 -d 3 -p tcp -e 1040 -c 1 -i 13 -a 1 -x {0.0 3.0 8 ------- null}
+ -t 0.2092 -s 3 -d 0 -p ack -e 40 -c 1 -i 23 -a 1 -x {3.0 0.0 8 ------- null}
- -t 0.2092 -s 3 -d 0 -p ack -e 40 -c 1 -i 23 -a 1 -x {3.0 0.0 8 ------- null}
h -t 0.2092 -s 3 -d 0 -p ack -e 40 -c 1 -i 23 -a 1 -x {3.0 0.0 -1 ------- null}
r -t 0.2112 -s 3 -d 0 -p ack -e 40 -c 1 -i 20 -a 1 -x {3.0 0.0 7 ------- null}
+ -t 0.2112 -s 0 -d 3 -p tcp -e 1040 -c 1 -i 24 -a 1 -x {0.0 3.0 15 ------- null}
+ -t 0.2112 -s 0 -d 3 -p tcp -e 1040 -c 1 -i 25 -a 1 -x {0.0 3.0 16 ------- null}
- -t 0.21584 -s 0 -d 3 -p tcp -e 1040 -c 1 -i 18 -a 1 -x {0.0 3.0 11 ------- null}
h -t 0.21584 -s 0 -d 3 -p tcp -e 1040 -c 1 -i 18 -a 1 -x {0.0 3.0 -1 ------- null}
r -t 0.21752 -s 0 -d 3 -p tcp -e 1040 -c 1 -i 15 -a 1 -x {0.0 3.0 9 ------- null}
+ -t 0.21752 -s 3 -d 0 -p ack -e 40 -c 1 -i 26 -a 1 -x {3.0 0.0 9 ------- null}
- -t 0.21752 -s 3 -d 0 -p ack -e 40 -c 1 -i 26 -a 1 -x {3.0 0.0 9 ------- null}
h -t 0.21752 -s 3 -d 0 -p ack -e 40 -c 1 -i 26 -a 1 -x {3.0 0.0 -1 ------- null}
r -t 0.21952 -s 3 -d 0 -p ack -e 40 -c 1 -i 23 -a 1 -x {3.0 0.0 8 ------- null}
+ -t 0.21952 -s 0 -d 3 -p tcp -e 1040 -c 1 -i 27 -a 1 -x {0.0 3.0 17 ------- null}
+ -t 0.21952 -s 0 -d 3 -p tcp -e 1040 -c 1 -i 28 -a 1 -x {0.0 3.0 18 ------- null}
- -t 0.22416 -s 0 -d 3 -p tcp -e 1040 -c 1 -i 19 -a 1 -x {0.0 3.0 12 ------- null}
h -t 0.22416 -s 0 -d 3 -p tcp -e 1040 -c 1 -i 19 -a 1 -x {0.0 3.0 -1 ------- null}
r -t 0.22584 -s 0 -d 3 -p tcp -e 1040 -c 1 -i 16 -a 1 -x {0.0 3.0 10 ------- null}
+ -t 0.22584 -s 3 -d 0 -p ack -e 40 -c 1 -i 29 -a 1 -x {3.0 0.0 10 ------- null}
- -t 0.22584 -s 3 -d 0 -p ack -e 40 -c 1 -i 29 -a 1 -x {3.0 0.0 10 ------- null}
h -t 0.22584 -s 3 -d 0 -p ack -e 40 -c 1 -i 29 -a 1 -x {3.0 0.0 -1 ------- null}
r -t 0.22784 -s 3 -d 0 -p ack -e 40 -c 1 -i 26 -a 1 -x {3.0 0.0 9 ------- null}
+ -t 0.22784 -s 0 -d 3 -p tcp -e 1040 -c 1 -i 30 -a 1 -x {0.0 3.0 19 ------- null}
+ -t 0.22784 -s 0 -d 3 -p tcp -e 1040 -c 1 -i 31 -a 1 -x {0.0 3.0 20 ------- null}
- -t 0.23248 -s 0 -d 3 -p tcp -e 1040 -c 1 -i 21 -a 1 -x {0.0 3.0 13 ------- null}
h -t 0.23248 -s 0 -d 3 -p tcp -e 1040 -c 1 -i 21 -a 1 -x {0.0 3.0 -1 ------- null}
r -t 0.23416 -s 0 -d 3 -p tcp -e 1040 -c 1 -i 18 -a 1 -x {0.0 3.0 11 ------- null}
+ -t 0.23416 -s 3 -d 0 -p ack -e 40 -c 1 -i 32 -a 1 -x {3.0 0.0 11 ------- null}
- -t 0.23416 -s 3 -d 0 -p ack -e 40 -c 1 -i 32 -a 1 -x {3.0 0.0 11 ------- null}
h -t 0.23416 -s 3 -d 0 -p ack -e 40 -c 1 -i 32 -a 1 -x {3.0 0.0 -1 ------- null}
r -t 0.23616 -s 3 -d 0 -p ack -e 40 -c 1 -i 29 -a 1 -x {3.0 0.0 10 ------- null}
+ -t 0.23616 -s 0 -d 3 -p tcp -e 1040 -c 1 -i 33 -a 1 -x {0.0 3.0 21 ------- null}
+ -t 0.23616 -s 0 -d 3 -p tcp -e 1040 -c 1 -i 34 -a 1 -x {0.0 3.0 22 ------- null}
- -t 0.2408 -s 0 -d 3 -p tcp -e 1040 -c 1 -i 22 -a 1 -x {0.0 3.0 14 ------- null}
h -t 0.2408 -s 0 -d 3 -p tcp -e 1040 -c 1 -i 22 -a 1 -x {0.0 3.0 -1 ------- null}
r -t 0.24248 -s 0 -d 3 -p tcp -e 1040 -c 1 -i 19 -a 1 -x {0.0 3.0 12 ------- null}
+ -t 0.24248 -s 3 -d 0 -p ack -e 40 -c 1 -i 35 -a 1 -x {3.0 0.0 12 ------- null}
- -t 0.24248 -s 3 -d 0 -p ack -e 40 -c 1 -i 35 -a 1 -x {3.0 0.0 12 ------- null}
h -t 0.24248 -s 3 -d 0 -p ack -e 40 -c 1 -i 35 -a 1 -x {3.0 0.0 -1 ------- null}
r -t 0.24448 -s 3 -d 0 -p ack -e 40 -c 1 -i 32 -a 1 -x {3.0 0.0 11 ------- null}
+ -t 0.24448 -s 0 -d 3 -p tcp -e 1040 -c 1 -i 36 -a 1 -x {0.0 3.0 23 ------- null}
+ -t 0.24448 -s 0 -d 3 -p tcp -e 1040 -c 1 -i 37 -a 1 -x {0.0 3.0 24 ------- null}
- -t 0.24912 -s 0 -d 3 -p tcp -e 1040 -c 1 -i 24 -a 1 -x {0.0 3.0 15 ------- null}
h -t 0.24912 -s 0 -d 3 -p tcp -e 1040 -c 1 -i 24 -a 1 -x {0.0 3.0 -1 ------- null}
r -t 0.2508 -s 0 -d 3 -p tcp -e 1040 -c 1 -i 21 -a 1 -x {0.0 3.0 13 ------- null}
+ -t 0.2508 -s 3 -d 0 -p ack -e 40 -c 1 -i 38 -a 1 -x {3.0 0.0 13 ------- null}
- -t 0.2508 -s 3 -d 0 -p ack -e 40 -c 1 -i 38 -a 1 -x {3.0 0.0 13 ------- null}
h -t 0.2508 -s 3 -d 0 -p ack -e 40 -c 1 -i 38 -a 1 -x {3.0 0.0 -1 ------- null}
r -t 0.2528 -s 3 -d 0 -p ack -e 40 -c 1 -i 35 -a 1 -x {3.0 0.0 12 ------- null}
+ -t 0.2528 -s 0 -d 3 -p tcp -e 1040 -c 1 -i 39 -a 1 -x {0.0 3.0 25 ------- null}
+ -t 0.2528 -s 0 -d 3 -p tcp -e 1040 -c 1 -i 40 -a 1 -x {0.0 3.0 26 ------- null}
- -t 0.25744 -s 0 -d 3 -p tcp -e 1040 -c 1 -i 25 -a 1 -x {0.0 3.0 16 ------- null}
h -t 0.25744 -s 0 -d 3 -p tcp -e 1040 -c 1 -i 25 -a 1 -x {0.0 3.0 -1 ------- null}
r -t 0.25912 -s 0 -d 3 -p tcp -e 1040 -c 1 -i 22 -a 1 -x {0.0 3.0 14 ------- null}
+ -t 0.25912 -s 3 -d 0 -p ack -e 40 -c 1 -i 41 -a 1 -x {3.0 0.0 14 ------- null}
- -t 0.25912 -s 3 -d 0 -p ack -e 40 -c 1 -i 41 -a 1 -x {3.0 0.0 14 ------- null}
h -t 0.25912 -s 3 -d 0 -p ack -e 40 -c 1 -i 41 -a 1 -x {3.0 0.0 -1 ------- null}
r -t 0.26112 -s 3 -d 0 -p ack -e 40 -c 1 -i 38 -a 1 -x {3.0 0.0 13 ------- null}
+ -t 0.26112 -s 0 -d 3 -p tcp -e 1040 -c 1 -i 42 -a 1 -x {0.0 3.0 27 ------- null}
+ -t 0.26112 -s 0 -d 3 -p tcp -e 1040 -c 1 -i 43 -a 1 -x {0.0 3.0 28 ------- null}
- -t 0.26576 -s 0 -d 3 -p tcp -e 1040 -c 1 -i 27 -a 1 -x {0.0 3.0 17 ------- null}
h -t 0.26576 -s 0 -d 3 -p tcp -e 1040 -c 1 -i 27 -a 1 -x {0.0 3.0 -1 ------- null}
r -t 0.26744 -s 0 -d 3 -p tcp -e 1040 -c 1 -i 24 -a 1 -x {0.0 3.0 15 ------- null}
+ -t 0.26744 -s 3 -d 0 -p ack -e 40 -c 1 -i 44 -a 1 -x {3.0 0.0 15 ------- null}
- -t 0.26744 -s 3 -d 0 -p ack -e 40 -c 1 -i 44 -a 1 -x {3.0 0.0 15 ------- null}
h -t 0.26744 -s 3 -d 0 -p ack -e 40 -c 1 -i 44 -a 1 -x {3.0 0.0 -1 ------- null}
r -t 0.26944 -s 3 -d 0 -p ack -e 40 -c 1 -i 41 -a 1 -x {3.0 0.0 14 ------- null}
+ -t 0.26944 -s 0 -d 3 -p tcp -e 1040 -c 1 -i 45 -a 1 -x {0.0 3.0 29 ------- null}
+ -t 0.26944 -s 0 -d 3 -p tcp -e 1040 -c 1 -i 46 -a 1 -x {0.0 3.0 30 ------- null}
- -t 0.27408 -s 0 -d 3 -p tcp -e 1040 -c 1 -i 28 -a 1 -x {0.0 3.0 18 ------- null}
h -t 0.27408 -s 0 -d 3 -p tcp -e 1040 -c 1 -i 28 -a 1 -x {0.0 3.0 -1 ------- null}
r -t 0.27576 -s 0 -d 3 -p tcp -e 1040 -c 1 -i 25 -a 1 -x {0.0 3.0 16 ------- null}
+ -t 0.27576 -s 3 -d 0 -p ack -e 40 -c 1 -i 47 -a 1 -x {3.0 0.0 16 ------- null}
- -t 0.27576 -s 3 -d 0 -p ack -e 40 -c 1 -i 47 -a 1 -x {3.0 0.0 16 ------- null}
h -t 0.27576 -s 3 -d 0 -p ack -e 40 -c 1 -i 47 -a 1 -x {3.0 0.0 -1 ------- null}
r -t 0.27776 -s 3 -d 0 -p ack -e 40 -c 1 -i 44 -a 1 -x {3.0 0.0 15 ------- null}
+ -t 0.27776 -s 0 -d 3 -p tcp -e 1040 -c 1 -i 48 -a 1 -x {0.0 3.0 31 ------- null}
+ -t 0.27776 -s 0 -d 3 -p tcp -e 1040 -c 1 -i 49 -a 1 -x {0.0 3.0 32 ------- null}
- -t 0.2824 -s 0 -d 3 -p tcp -e 1040 -c 1 -i 30 -a 1 -x {0.0 3.0 19 ------- null}
h -t 0.2824 -s 0 -d 3 -p tcp -e 1040 -c 1 -i 30 -a 1 -x {0.0 3.0 -1 ------- null}
r -t 0.28408 -s 0 -d 3 -p tcp -e 1040 -c 1 -i 27 -a 1 -x {0.0 3.0 17 ------- null}
+ -t 0.28408 -s 3 -d 0 -p ack -e 40 -c 1 -i 50 -a 1 -x {3.0 0.0 17 ------- null}
- -t 0.28408 -s 3 -d 0 -p ack -e 40 -c 1 -i 50 -a 1 -x {3.0 0.0 17 ------- null}
h -t 0.28408 -s 3 -d 0 -p ack -e 40 -c 1 -i 50 -a 1 -x {3.0 0.0 -1 ------- null}
r -t 0.28608 -s 3 -d 0 -p ack -e 40 -c 1 -i 47 -a 1 -x {3.0 0.0 16 ------- null}
+ -t 0.28608 -s 0 -d 3 -p tcp -e 1040 -c 1 -i 51 -a 1 -x {0.0 3.0 33 ------- null}
+ -t 0.28608 -s 0 -d 3 -p tcp -e 1040 -c 1 -i 52 -a 1 -x {0.0 3.0 34 ------- null}
- -t 0.29072 -s 0 -d 3 -p tcp -e 1040 -c 1 -i 31 -a 1 -x {0.0 3.0 20 ------- null}
h -t 0.29072 -s 0 -d 3 -p tcp -e 1040 -c 1 -i 31 -a 1 -x {0.0 3.0 -1 ------- null}
r -t 0.2924 -s 0 -d 3 -p tcp -e 1040 -c 1 -i 28 -a 1 -x {0.0 3.0 18 ------- null}
+ -t 0.2924 -s 3 -d 0 -p ack -e 40 -c 1 -i 53 -a 1 -x {3.0 0.0 18 ------- null}
- -t 0.2924 -s 3 -d 0 -p ack -e 40 -c 1 -i 53 -a 1 -x {3.0 0.0 18 ------- null}
h -t 0.2924 -s 3 -d 0 -p ack -e 40 -c 1 -i 53 -a 1 -x {3.0 0.0 -1 ------- null}
r -t 0.2944 -s 3 -d 0 -p ack -e 40 -c 1 -i 50 -a 1 -x {3.0 0.0 17 ------- null}
+ -t 0.2944 -s 0 -d 3 -p tcp -e 1040 -c 1 -i 54 -a 1 -x {0.0 3.0 35 ------- null}
+ -t 0.2944 -s 0 -d 3 -p tcp -e 1040 -c 1 -i 55 -a 1 -x {0.0 3.0 36 ------- null}
- -t 0.29904 -s 0 -d 3 -p tcp -e 1040 -c 1 -i 33 -a 1 -x {0.0 3.0 21 ------- null}
h -t 0.29904 -s 0 -d 3 -p tcp -e 1040 -c 1 -i 33 -a 1 -x {0.0 3.0 -1 ------- null}
r -t 0.30072 -s 0 -d 3 -p tcp -e 1040 -c 1 -i 30 -a 1 -x {0.0 3.0 19 ------- null}
+ -t 0.30072 -s 3 -d 0 -p ack -e 40 -c 1 -i 56 -a 1 -x {3.0 0.0 19 ------- null}
- -t 0.30072 -s 3 -d 0 -p ack -e 40 -c 1 -i 56 -a 1 -x {3.0 0.0 19 ------- null}
h -t 0.30072 -s 3 -d 0 -p ack -e 40 -c 1 -i 56 -a 1 -x {3.0 0.0 -1 ------- null}
r -t 0.30272 -s 3 -d 0 -p ack -e 40 -c 1 -i 53 -a 1 -x {3.0 0.0 18 ------- null}
+ -t 0.30272 -s 0 -d 3 -p tcp -e 1040 -c 1 -i 57 -a 1 -x {0.0 3.0 37 ------- null}
+ -t 0.30272 -s 0 -d 3 -p tcp -e 1040 -c 1 -i 58 -a 1 -x {0.0 3.0 38 ------- null}
- -t 0.30736 -s 0 -d 3 -p tcp -e 1040 -c 1 -i 34 -a 1 -x {0.0 3.0 22 ------- null}
h -t 0.30736 -s 0 -d 3 -p tcp -e 1040 -c 1 -i 34 -a 1 -x {0.0 3.0 -1 ------- null}
r -t 0.30904 -s 0 -d 3 -p tcp -e 1040 -c 1 -i 31 -a 1 -x {0.0 3.0 20 ------- null}
+ -t 0.30904 -s 3 -d 0 -p ack -e 40 -c 1 -i 59 -a 1 -x {3.0 0.0 20 ------- null}
- -t 0.30904 -s 3 -d 0 -p ack -e 40 -c 1 -i 59 -a 1 -x {3.0 0.0 20 ------- null}
h -t 0.30904 -s 3 -d 0 -p ack -e 40 -c 1 -i 59 -a 1 -x {3.0 0.0 -1 ------- null}
r -t 0.31104 -s 3 -d 0 -p ack -e 40 -c 1 -i 56 -a 1 -x {3.0 0.0 19 ------- null}
+ -t 0.31104 -s 0 -d 3 -p tcp -e 1040 -c 1 -i 60 -a 1 -x {0.0 3.0 39 ------- null}
- -t 0.31568 -s 0 -d 3 -p tcp -e 1040 -c 1 -i 36 -a 1 -x {0.0 3.0 23 ------- null}
h -t 0.31568 -s 0 -d 3 -p tcp -e 1040 -c 1 -i 36 -a 1 -x {0.0 3.0 -1 ------- null}
r -t 0.31736 -s 0 -d 3 -p tcp -e 1040 -c 1 -i 33 -a 1 -x {0.0 3.0 21 ------- null}
+ -t 0.31736 -s 3 -d 0 -p ack -e 40 -c 1 -i 61 -a 1 -x {3.0 0.0 21 ------- null}
- -t 0.31736 -s 3 -d 0 -p ack -e 40 -c 1 -i 61 -a 1 -x {3.0 0.0 21 ------- null}
h -t 0.31736 -s 3 -d 0 -p ack -e 40 -c 1 -i 61 -a 1 -x {3.0 0.0 -1 ------- null}
r -t 0.31936 -s 3 -d 0 -p ack -e 40 -c 1 -i 59 -a 1 -x {3.0 0.0 20 ------- null}
+ -t 0.31936 -s 0 -d 3 -p tcp -e 1040 -c 1 -i 62 -a 1 -x {0.0 3.0 40 ------- null}
- -t 0.324 -s 0 -d 3 -p tcp -e 1040 -c 1 -i 37 -a 1 -x {0.0 3.0 24 ------- null}
h -t 0.324 -s 0 -d 3 -p tcp -e 1040 -c 1 -i 37 -a 1 -x {0.0 3.0 -1 ------- null}
r -t 0.32568 -s 0 -d 3 -p tcp -e 1040 -c 1 -i 34 -a 1 -x {0.0 3.0 22 ------- null}
+ -t 0.32568 -s 3 -d 0 -p ack -e 40 -c 1 -i 63 -a 1 -x {3.0 0.0 22 ------- null}
- -t 0.32568 -s 3 -d 0 -p ack -e 40 -c 1 -i 63 -a 1 -x {3.0 0.0 22 ------- null}
h -t 0.32568 -s 3 -d 0 -p ack -e 40 -c 1 -i 63 -a 1 -x {3.0 0.0 -1 ------- null}
r -t 0.32768 -s 3 -d 0 -p ack -e 40 -c 1 -i 61 -a 1 -x {3.0 0.0 21 ------- null}
+ -t 0.32768 -s 0 -d 3 -p tcp -e 1040 -c 1 -i 64 -a 1 -x {0.0 3.0 41 ------- null}
- -t 0.33232 -s 0 -d 3 -p tcp -e 1040 -c 1 -i 39 -a 1 -x {0.0 3.0 25 ------- null}
h -t 0.33232 -s 0 -d 3 -p tcp -e 1040 -c 1 -i 39 -a 1 -x {0.0 3.0 -1 ------- null}
r -t 0.334 -s 0 -d 3 -p tcp -e 1040 -c 1 -i 36 -a 1 -x {0.0 3.0 23 ------- null}
+ -t 0.334 -s 3 -d 0 -p ack -e 40 -c 1 -i 65 -a 1 -x {3.0 0.0 23 ------- null}
- -t 0.334 -s 3 -d 0 -p ack -e 40 -c 1 -i 65 -a 1 -x {3.0 0.0 23 ------- null}
h -t 0.334 -s 3 -d 0 -p ack -e 40 -c 1 -i 65 -a 1 -x {3.0 0.0 -1 ------- null}
r -t 0.336 -s 3 -d 0 -p ack -e 40 -c 1 -i 63 -a 1 -x {3.0 0.0 22 ------- null}
+ -t 0.336 -s 0 -d 3 -p tcp -e 1040 -c 1 -i 66 -a 1 -x {0.0 3.0 42 ------- null}
- -t 0.34064 -s 0 -d 3 -p tcp -e 1040 -c 1 -i 40 -a 1 -x {0.0 3.0 26 ------- null}
h -t 0.34064 -s 0 -d 3 -p tcp -e 1040 -c 1 -i 40 -a 1 -x {0.0 3.0 -1 ------- null}
r -t 0.34232 -s 0 -d 3 -p tcp -e 1040 -c 1 -i 37 -a 1 -x {0.0 3.0 24 ------- null}
+ -t 0.34232 -s 3 -d 0 -p ack -e 40 -c 1 -i 67 -a 1 -x {3.0 0.0 24 ------- null}
- -t 0.34232 -s 3 -d 0 -p ack -e 40 -c 1 -i 67 -a 1 -x {3.0 0.0 24 ------- null}
h -t 0.34232 -s 3 -d 0 -p ack -e 40 -c 1 -i 67 -a 1 -x {3.0 0.0 -1 ------- null}
r -t 0.34432 -s 3 -d 0 -p ack -e 40 -c 1 -i 65 -a 1 -x {3.0 0.0 23 ------- null}
+ -t 0.34432 -s 0 -d 3 -p tcp -e 1040 -c 1 -i 68 -a 1 -x {0.0 3.0 43 ------- null}
- -t 0.34896 -s 0 -d 3 -p tcp -e 1040 -c 1 -i 42 -a 1 -x {0.0 3.0 27 ------- null}
h -t 0.34896 -s 0 -d 3 -p tcp -e 1040 -c 1 -i 42 -a 1 -x {0.0 3.0 -1 ------- null}
r -t 0.35064 -s 0 -d 3 -p tcp -e 1040 -c 1 -i 39 -a 1 -x {0.0 3.0 25 ------- null}
+ -t 0.35064 -s 3 -d 0 -p ack -e 40 -c 1 -i 69 -a 1 -x {3.0 0.0 25 ------- null}
- -t 0.35064 -s 3 -d 0 -p ack -e 40 -c 1 -i 69 -a 1 -x {3.0 0.0 25 ------- null}
h -t 0.35064 -s 3 -d 0 -p ack -e 40 -c 1 -i 69 -a 1 -x {3.0 0.0 -1 ------- null}
r -t 0.35264 -s 3 -d 0 -p ack -e 40 -c 1 -i 67 -a 1 -x {3.0 0.0 24 ------- null}
+ -t 0.35264 -s 0 -d 3 -p tcp -e 1040 -c 1 -i 70 -a 1 -x {0.0 3.0 44 ------- null}
- -t 0.35728 -s 0 -d 3 -p tcp -e 1040 -c 1 -i 43 -a 1 -x {0.0 3.0 28 ------- null}
h -t 0.35728 -s 0 -d 3 -p tcp -e 1040 -c 1 -i 43 -a 1 -x {0.0 3.0 -1 ------- null}
r -t 0.35896 -s 0 -d 3 -p tcp -e 1040 -c 1 -i 40 -a 1 -x {0.0 3.0 26 ------- null}
+ -t 0.35896 -s 3 -d 0 -p ack -e 40 -c 1 -i 71 -a 1 -x {3.0 0.0 26 ------- null}
- -t 0.35896 -s 3 -d 0 -p ack -e 40 -c 1 -i 71 -a 1 -x {3.0 0.0 26 ------- null}
h -t 0.35896 -s 3 -d 0 -p ack -e 40 -c 1 -i 71 -a 1 -x {3.0 0.0 -1 ------- null}
r -t 0.36096 -s 3 -d 0 -p ack -e 40 -c 1 -i 69 -a 1 -x {3.0 0.0 25 ------- null}
+ -t 0.36096 -s 0 -d 3 -p tcp -e 1040 -c 1 -i 72 -a 1 -x {0.0 3.0 45 ------- null}
- -t 0.3656 -s 0 -d 3 -p tcp -e 1040 -c 1 -i 45 -a 1 -x {0.0 3.0 29 ------- null}
h -t 0.3656 -s 0 -d 3 -p tcp -e 1040 -c 1 -i 45 -a 1 -x {0.0 3.0 -1 ------- null}
r -t 0.36728 -s 0 -d 3 -p tcp -e 1040 -c 1 -i 42 -a 1 -x {0.0 3.0 27 ------- null}
+ -t 0.36728 -s 3 -d 0 -p ack -e 40 -c 1 -i 73 -a 1 -x {3.0 0.0 27 ------- null}
- -t 0.36728 -s 3 -d 0 -p ack -e 40 -c 1 -i 73 -a 1 -x {3.0 0.0 27 ------- null}
h -t 0.36728 -s 3 -d 0 -p ack -e 40 -c 1 -i 73 -a 1 -x {3.0 0.0 -1 ------- null}
r -t 0.36928 -s 3 -d 0 -p ack -e 40 -c 1 -i 71 -a 1 -x {3.0 0.0 26 ------- null}
+ -t 0.36928 -s 0 -d 3 -p tcp -e 1040 -c 1 -i 74 -a 1 -x {0.0 3.0 46 ------- null}
- -t 0.37392 -s 0 -d 3 -p tcp -e 1040 -c 1 -i 46 -a 1 -x {0.0 3.0 30 ------- null}
h -t 0.37392 -s 0 -d 3 -p tcp -e 1040 -c 1 -i 46 -a 1 -x {0.0 3.0 -1 ------- null}
r -t 0.3756 -s 0 -d 3 -p tcp -e 1040 -c 1 -i 43 -a 1 -x {0.0 3.0 28 ------- null}
+ -t 0.3756 -s 3 -d 0 -p ack -e 40 -c 1 -i 75 -a 1 -x {3.0 0.0 28 ------- null}
- -t 0.3756 -s 3 -d 0 -p ack -e 40 -c 1 -i 75 -a 1 -x {3.0 0.0 28 ------- null}
h -t 0.3756 -s 3 -d 0 -p ack -e 40 -c 1 -i 75 -a 1 -x {3.0 0.0 -1 ------- null}
r -t 0.3776 -s 3 -d 0 -p ack -e 40 -c 1 -i 73 -a 1 -x {3.0 0.0 27 ------- null}
+ -t 0.3776 -s 0 -d 3 -p tcp -e 1040 -c 1 -i 76 -a 1 -x {0.0 3.0 47 ------- null}
- -t 0.38224 -s 0 -d 3 -p tcp -e 1040 -c 1 -i 48 -a 1 -x {0.0 3.0 31 ------- null}
h -t 0.38224 -s 0 -d 3 -p tcp -e 1040 -c 1 -i 48 -a 1 -x {0.0 3.0 -1 ------- null}
r -t 0.38392 -s 0 -d 3 -p tcp -e 1040 -c 1 -i 45 -a 1 -x {0.0 3.0 29 ------- null}
+ -t 0.38392 -s 3 -d 0 -p ack -e 40 -c 1 -i 77 -a 1 -x {3.0 0.0 29 ------- null}
- -t 0.38392 -s 3 -d 0 -p ack -e 40 -c 1 -i 77 -a 1 -x {3.0 0.0 29 ------- null}
h -t 0.38392 -s 3 -d 0 -p ack -e 40 -c 1 -i 77 -a 1 -x {3.0 0.0 -1 ------- null}
r -t 0.38592 -s 3 -d 0 -p ack -e 40 -c 1 -i 75 -a 1 -x {3.0 0.0 28 ------- null}
+ -t 0.38592 -s 0 -d 3 -p tcp -e 1040 -c 1 -i 78 -a 1 -x {0.0 3.0 48 ------- null}
- -t 0.39056 -s 0 -d 3 -p tcp -e 1040 -c 1 -i 49 -a 1 -x {0.0 3.0 32 ------- null}
h -t 0.39056 -s 0 -d 3 -p tcp -e 1040 -c 1 -i 49 -a 1 -x {0.0 3.0 -1 ------- null}
r -t 0.39224 -s 0 -d 3 -p tcp -e 1040 -c 1 -i 46 -a 1 -x {0.0 3.0 30 ------- null}
+ -t 0.39224 -s 3 -d 0 -p ack -e 40 -c 1 -i 79 -a 1 -x {3.0 0.0 30 ------- null}
- -t 0.39224 -s 3 -d 0 -p ack -e 40 -c 1 -i 79 -a 1 -x {3.0 0.0 30 ------- null}
h -t 0.39224 -s 3 -d 0 -p ack -e 40 -c 1 -i 79 -a 1 -x {3.0 0.0 -1 ------- null}
r -t 0.39424 -s 3 -d 0 -p ack -e 40 -c 1 -i 77 -a 1 -x {3.0 0.0 29 ------- null}
+ -t 0.39424 -s 0 -d 3 -p tcp -e 1040 -c 1 -i 80 -a 1 -x {0.0 3.0 49 ------- null}
- -t 0.39888 -s 0 -d 3 -p tcp -e 1040 -c 1 -i 51 -a 1 -x {0.0 3.0 33 ------- null}
h -t 0.39888 -s 0 -d 3 -p tcp -e 1040 -c 1 -i 51 -a 1 -x {0.0 3.0 -1 ------- null}
r -t 0.40056 -s 0 -d 3 -p tcp -e 1040 -c 1 -i 48 -a 1 -x {0.0 3.0 31 ------- null}
+ -t 0.40056 -s 3 -d 0 -p ack -e 40 -c 1 -i 81 -a 1 -x {3.0 0.0 31 ------- null}
- -t 0.40056 -s 3 -d 0 -p ack -e 40 -c 1 -i 81 -a 1 -x {3.0 0.0 31 ------- null}
h -t 0.40056 -s 3 -d 0 -p ack -e 40 -c 1 -i 81 -a 1 -x {3.0 0.0 -1 ------- null}
r -t 0.40256 -s 3 -d 0 -p ack -e 40 -c 1 -i 79 -a 1 -x {3.0 0.0 30 ------- null}
+ -t 0.40256 -s 0 -d 3 -p tcp -e 1040 -c 1 -i 82 -a 1 -x {0.0 3.0 50 ------- null}
- -t 0.4072 -s 0 -d 3 -p tcp -e 1040 -c 1 -i 52 -a 1 -x {0.0 3.0 34 ------- null}
h -t 0.4072 -s 0 -d 3 -p tcp -e 1040 -c 1 -i 52 -a 1 -x {0.0 3.0 -1 ------- null}
r -t 0.40888 -s 0 -d 3 -p tcp -e 1040 -c 1 -i 49 -a 1 -x {0.0 3.0 32 ------- null}
+ -t 0.40888 -s 3 -d 0 -p ack -e 40 -c 1 -i 83 -a 1 -x {3.0 0.0 32 ------- null}
- -t 0.40888 -s 3 -d 0 -p ack -e 40 -c 1 -i 83 -a 1 -x {3.0 0.0 32 ------- null}
h -t 0.40888 -s 3 -d 0 -p ack -e 40 -c 1 -i 83 -a 1 -x {3.0 0.0 -1 ------- null}
r -t 0.41088 -s 3 -d 0 -p ack -e 40 -c 1 -i 81 -a 1 -x {3.0 0.0 31 ------- null}
+ -t 0.41088 -s 0 -d 3 -p tcp -e 1040 -c 1 -i 84 -a 1 -x {0.0 3.0 51 ------- null}
- -t 0.41552 -s 0 -d 3 -p tcp -e 1040 -c 1 -i 54 -a 1 -x {0.0 3.0 35 ------- null}
h -t 0.41552 -s 0 -d 3 -p tcp -e 1040 -c 1 -i 54 -a 1 -x {0.0 3.0 -1 ------- null}
r -t 0.4172 -s 0 -d 3 -p tcp -e 1040 -c 1 -i 51 -a 1 -x {0.0 3.0 33 ------- null}
+ -t 0.4172 -s 3 -d 0 -p ack -e 40 -c 1 -i 85 -a 1 -x {3.0 0.0 33 ------- null}
- -t 0.4172 -s 3 -d 0 -p ack -e 40 -c 1 -i 85 -a 1 -x {3.0 0.0 33 ------- null}
h -t 0.4172 -s 3 -d 0 -p ack -e 40 -c 1 -i 85 -a 1 -x {3.0 0.0 -1 ------- null}
r -t 0.4192 -s 3 -d 0 -p ack -e 40 -c 1 -i 83 -a 1 -x {3.0 0.0 32 ------- null}
+ -t 0.4192 -s 0 -d 3 -p tcp -e 1040 -c 1 -i 86 -a 1 -x {0.0 3.0 52 ------- null}
- -t 0.42384 -s 0 -d 3 -p tcp -e 1040 -c 1 -i 55 -a 1 -x {0.0 3.0 36 ------- null}
h -t 0.42384 -s 0 -d 3 -p tcp -e 1040 -c 1 -i 55 -a 1 -x {0.0 3.0 -1 ------- null}
r -t 0.42552 -s 0 -d 3 -p tcp -e 1040 -c 1 -i 52 -a 1 -x {0.0 3.0 34 ------- null}
+ -t 0.42552 -s 3 -d 0 -p ack -e 40 -c 1 -i 87 -a 1 -x {3.0 0.0 34 ------- null}
- -t 0.42552 -s 3 -d 0 -p ack -e 40 -c 1 -i 87 -a 1 -x {3.0 0.0 34 ------- null}
h -t 0.42552 -s 3 -d 0 -p ack -e 40 -c 1 -i 87 -a 1 -x {3.0 0.0 -1 ------- null}
r -t 0.42752 -s 3 -d 0 -p ack -e 40 -c 1 -i 85 -a 1 -x {3.0 0.0 33 ------- null}
+ -t 0.42752 -s 0 -d 3 -p tcp -e 1040 -c 1 -i 88 -a 1 -x {0.0 3.0 53 ------- null}
- -t 0.43216 -s 0 -d 3 -p tcp -e 1040 -c 1 -i 57 -a 1 -x {0.0 3.0 37 ------- null}
h -t 0.43216 -s 0 -d 3 -p tcp -e 1040 -c 1 -i 57 -a 1 -x {0.0 3.0 -1 ------- null}
r -t 0.43384 -s 0 -d 3 -p tcp -e 1040 -c 1 -i 54 -a 1 -x {0.0 3.0 35 ------- null}
+ -t 0.43384 -s 3 -d 0 -p ack -e 40 -c 1 -i 89 -a 1 -x {3.0 0.0 35 ------- null}
- -t 0.43384 -s 3 -d 0 -p ack -e 40 -c 1 -i 89 -a 1 -x {3.0 0.0 35 ------- null}
h -t 0.43384 -s 3 -d 0 -p ack -e 40 -c 1 -i 89 -a 1 -x {3.0 0.0 -1 ------- null}
r -t 0.43584 -s 3 -d 0 -p ack -e 40 -c 1 -i 87 -a 1 -x {3.0 0.0 34 ------- null}
+ -t 0.43584 -s 0 -d 3 -p tcp -e 1040 -c 1 -i 90 -a 1 -x {0.0 3.0 54 ------- null}
- -t 0.44048 -s 0 -d 3 -p tcp -e 1040 -c 1 -i 58 -a 1 -x {0.0 3.0 38 ------- null}
h -t 0.44048 -s 0 -d 3 -p tcp -e 1040 -c 1 -i 58 -a 1 -x {0.0 3.0 -1 ------- null}
r -t 0.44216 -s 0 -d 3 -p tcp -e 1040 -c 1 -i 55 -a 1 -x {0.0 3.0 36 ------- null}
+ -t 0.44216 -s 3 -d 0 -p ack -e 40 -c 1 -i 91 -a 1 -x {3.0 0.0 36 ------- null}
- -t 0.44216 -s 3 -d 0 -p ack -e 40 -c 1 -i 91 -a 1 -x {3.0 0.0 36 ------- null}
h -t 0.44216 -s 3 -d 0 -p ack -e 40 -c 1 -i 91 -a 1 -x {3.0 0.0 -1 ------- null}
r -t 0.44416 -s 3 -d 0 -p ack -e 40 -c 1 -i 89 -a 1 -x {3.0 0.0 35 ------- null}
+ -t 0.44416 -s 0 -d 3 -p tcp -e 1040 -c 1 -i 92 -a 1 -x {0.0 3.0 55 ------- null}
- -t 0.4488 -s 0 -d 3 -p tcp -e 1040 -c 1 -i 60 -a 1 -x {0.0 3.0 39 ------- null}
h -t 0.4488 -s 0 -d 3 -p tcp -e 1040 -c 1 -i 60 -a 1 -x {0.0 3.0 -1 ------- null}
r -t 0.45048 -s 0 -d 3 -p tcp -e 1040 -c 1 -i 57 -a 1 -x {0.0 3.0 37 ------- null}
+ -t 0.45048 -s 3 -d 0 -p ack -e 40 -c 1 -i 93 -a 1 -x {3.0 0.0 37 ------- null}
- -t 0.45048 -s 3 -d 0 -p ack -e 40 -c 1 -i 93 -a 1 -x {3.0 0.0 37 ------- null}
h -t 0.45048 -s 3 -d 0 -p ack -e 40 -c 1 -i 93 -a 1 -x {3.0 0.0 -1 ------- null}
r -t 0.45248 -s 3 -d 0 -p ack -e 40 -c 1 -i 91 -a 1 -x {3.0 0.0 36 ------- null}
+ -t 0.45248 -s 0 -d 3 -p tcp -e 1040 -c 1 -i 94 -a 1 -x {0.0 3.0 56 ------- null}
- -t 0.45712 -s 0 -d 3 -p tcp -e 1040 -c 1 -i 62 -a 1 -x {0.0 3.0 40 ------- null}
h -t 0.45712 -s 0 -d 3 -p tcp -e 1040 -c 1 -i 62 -a 1 -x {0.0 3.0 -1 ------- null}
r -t 0.4588 -s 0 -d 3 -p tcp -e 1040 -c 1 -i 58 -a 1 -x {0.0 3.0 38 ------- null}
+ -t 0.4588 -s 3 -d 0 -p ack -e 40 -c 1 -i 95 -a 1 -x {3.0 0.0 38 ------- null}
- -t 0.4588 -s 3 -d 0 -p ack -e 40 -c 1 -i 95 -a 1 -x {3.0 0.0 38 ------- null}
h -t 0.4588 -s 3 -d 0 -p ack -e 40 -c 1 -i 95 -a 1 -x {3.0 0.0 -1 ------- null}
r -t 0.4608 -s 3 -d 0 -p ack -e 40 -c 1 -i 93 -a 1 -x {3.0 0.0 37 ------- null}
+ -t 0.4608 -s 0 -d 3 -p tcp -e 1040 -c 1 -i 96 -a 1 -x {0.0 3.0 57 ------- null}
- -t 0.46544 -s 0 -d 3 -p tcp -e 1040 -c 1 -i 64 -a 1 -x {0.0 3.0 41 ------- null}
h -t 0.46544 -s 0 -d 3 -p tcp -e 1040 -c 1 -i 64 -a 1 -x {0.0 3.0 -1 ------- null}
r -t 0.46712 -s 0 -d 3 -p tcp -e 1040 -c 1 -i 60 -a 1 -x {0.0 3.0 39 ------- null}
+ -t 0.46712 -s 3 -d 0 -p ack -e 40 -c 1 -i 97 -a 1 -x {3.0 0.0 39 ------- null}
- -t 0.46712 -s 3 -d 0 -p ack -e 40 -c 1 -i 97 -a 1 -x {3.0 0.0 39 ------- null}
h -t 0.46712 -s 3 -d 0 -p ack -e 40 -c 1 -i 97 -a 1 -x {3.0 0.0 -1 ------- null}
r -t 0.46912 -s 3 -d 0 -p ack -e 40 -c 1 -i 95 -a 1 -x {3.0 0.0 38 ------- null}
+ -t 0.46912 -s 0 -d 3 -p tcp -e 1040 -c 1 -i 98 -a 1 -x {0.0 3.0 58 ------- null}
- -t 0.47376 -s 0 -d 3 -p tcp -e 1040 -c 1 -i 66 -a 1 -x {0.0 3.0 42 ------- null}
h -t 0.47376 -s 0 -d 3 -p tcp -e 1040 -c 1 -i 66 -a 1 -x {0.0 3.0 -1 ------- null}
r -t 0.47544 -s 0 -d 3 -p tcp -e 1040 -c 1 -i 62 -a 1 -x {0.0 3.0 40 ------- null}
+ -t 0.47544 -s 3 -d 0 -p ack -e 40 -c 1 -i 99 -a 1 -x {3.0 0.0 40 ------- null}
- -t 0.47544 -s 3 -d 0 -p ack -e 40 -c 1 -i 99 -a 1 -x {3.0 0.0 40 ------- null}
h -t 0.47544 -s 3 -d 0 -p ack -e 40 -c 1 -i 99 -a 1 -x {3.0 0.0 -1 ------- null}
r -t 0.47744 -s 3 -d 0 -p ack -e 40 -c 1 -i 97 -a 1 -x {3.0 0.0 39 ------- null}
+ -t 0.47744 -s 0 -d 3 -p tcp -e 1040 -c 1 -i 100 -a 1 -x {0.0 3.0 59 ------- null}
- -t 0.48208 -s 0 -d 3 -p tcp -e 1040 -c 1 -i 68 -a 1 -x {0.0 3.0 43 ------- null}
h -t 0.48208 -s 0 -d 3 -p tcp -e 1040 -c 1 -i 68 -a 1 -x {0.0 3.0 -1 ------- null}
r -t 0.48376 -s 0 -d 3 -p tcp -e 1040 -c 1 -i 64 -a 1 -x {0.0 3.0 41 ------- null}