+ 0.1 0 3 cbr 1000 ------- 1 0.0 3.0 0 0
- 0.1 0 3 cbr 1000 ------- 1 0.0 3.0 0 0
+ 0.11 0 3 cbr 1000 ------- 1 0.0 3.0 1 1
- 0.11 0 3 cbr 1000 ------- 1 0.0 3.0 1 1
r 0.118 0 3 cbr 1000 ------- 1 0.0 3.0 0 0
+ 0.12 0 3 cbr 1000 ------- 1 0.0 3.0 2 2
- 0.12 0 3 cbr 1000 ------- 1 0.0 3.0 2 2
r 0.128 0 3 cbr 1000 ------- 1 0.0 3.0 1 1
+ 0.13 0 3 cbr 1000 ------- 1 0.0 3.0 3 3
- 0.13 0 3 cbr 1000 ------- 1 0.0 3.0 3 3
r 0.138 0 3 cbr 1000 ------- 1 0.0 3.0 2 2
+ 0.14 0 3 cbr 1000 ------- 1 0.0 3.0 4 4
- 0.14 0 3 cbr 1000 ------- 1 0.0 3.0 4 4
r 0.148 0 3 cbr 1000 ------- 1 0.0 3.0 3 3
+ 0.15 0 3 cbr 1000 ------- 1 0.0 3.0 5 5
- 0.15 0 3 cbr 1000 ------- 1 0.0 3.0 5 5
r 0.158 0 3 cbr 1000 ------- 1 0.0 3.0 4 4
+ 0.16 0 3 cbr 1000 ------- 1 0.0 3.0 6 6
- 0.16 0 3 cbr 1000 ------- 1 0.0 3.0 6 6
r 0.168 0 3 cbr 1000 ------- 1 0.0 3.0 5 5
+ 0.17 0 3 cbr 1000 ------- 1 0.0 3.0 7 7
- 0.17 0 3 cbr 1000 ------- 1 0.0 3.0 7 7
r 0.178 0 3 cbr 1000 ------- 1 0.0 3.0 6 6
+ 0.18 0 3 cbr 1000 ------- 1 0.0 3.0 8 8
- 0.18 0 3 cbr 1000 ------- 1 0.0 3.0 8 8
r 0.188 0 3 cbr 1000 ------- 1 0.0 3.0 7 7
+ 0.19 0 3 cbr 1000 ------- 1 0.0 3.0 9 9
- 0.19 0 3 cbr 1000 ------- 1 0.0 3.0 9 9
r 0.198 0 3 cbr 1000 ------- 1 0.0 3.0 8 8
+ 0.2 0 3 cbr 1000 ------- 1 0.0 3.0 10 10
- 0.2 0 3 cbr 1000 ------- 1 0.0 3.0 10 10
r 0.208 0 3 cbr 1000 ------- 1 0.0 3.0 9 9
+ 0.21 0 3 cbr 1000 ------- 1 0.0 3.0 11 11
- 0.21 0 3 cbr 1000 ------- 1 0.0 3.0 11 11
r 0.218 0 3 cbr 1000 ------- 1 0.0 3.0 10 10
+ 0.22 0 3 cbr 1000 ------- 1 0.0 3.0 12 12
- 0.22 0 3 cbr 1000 ------- 1 0.0 3.0 12 12
r 0.228 0 3 cbr 1000 ------- 1 0.0 3.0 11 11
+ 0.23 0 3 cbr 1000 ------- 1 0.0 3.0 13 13
- 0.23 0 3 cbr 1000 ------- 1 0.0 3.0 13 13
r 0.238 0 3 cbr 1000 ------- 1 0.0 3.0 12 12
+ 0.24 0 3 cbr 1000 ------- 1 0.0 3.0 14 14
- 0.24 0 3 cbr 1000 ------- 1 0.0 3.0 14 14
r 0.248 0 3 cbr 1000 ------- 1 0.0 3.0 13 13
+ 0.25 0 3 cbr 1000 ------- 1 0.0 3.0 15 15
- 0.25 0 3 cbr 1000 ------- 1 0.0 3.0 15 15
r 0.258 0 3 cbr 1000 ------- 1 0.0 3.0 14 14
+ 0.26 0 3 cbr 1000 ------- 1 0.0 3.0 16 16
- 0.26 0 3 cbr 1000 ------- 1 0.0 3.0 16 16
r 0.268 0 3 cbr 1000 ------- 1 0.0 3.0 15 15
+ 0.27 0 3 cbr 1000 ------- 1 0.0 3.0 17 17
- 0.27 0 3 cbr 1000 ------- 1 0.0 3.0 17 17
r 0.278 0 3 cbr 1000 ------- 1 0.0 3.0 16 16
+ 0.28 0 3 cbr 1000 ------- 1 0.0 3.0 18 18
- 0.28 0 3 cbr 1000 ------- 1 0.0 3.0 18 18
r 0.288 0 3 cbr 1000 ------- 1 0.0 3.0 17 17
+ 0.29 0 3 cbr 1000 ------- 1 0.0 3.0 19 19
- 0.29 0 3 cbr 1000 ------- 1 0.0 3.0 19 19
r 0.298 0 3 cbr 1000 ------- 1 0.0 3.0 18 18
+ 0.3 0 3 cbr 1000 ------- 1 0.0 3.0 20 20
- 0.3 0 3 cbr 1000 ------- 1 0.0 3.0 20 20
r 0.308 0 3 cbr 1000 ------- 1 0.0 3.0 19 19
+ 0.31 0 3 cbr 1000 ------- 1 0.0 3.0 21 21
- 0.31 0 3 cbr 1000 ------- 1 0.0 3.0 21 21
r 0.318 0 3 cbr 1000 ------- 1 0.0 3.0 20 20
+ 0.32 0 3 cbr 1000 ------- 1 0.0 3.0 22 22
- 0.32 0 3 cbr 1000 ------- 1 0.0 3.0 22 22
r 0.328 0 3 cbr 1000 ------- 1 0.0 3.0 21 21
+ 0.33 0 3 cbr 1000 ------- 1 0.0 3.0 23 23
- 0.33 0 3 cbr 1000 ------- 1 0.0 3.0 23 23
r 0.338 0 3 cbr 1000 ------- 1 0.0 3.0 22 22
+ 0.34 0 3 cbr 1000 ------- 1 0.0 3.0 24 24
- 0.34 0 3 cbr 1000 ------- 1 0.0 3.0 24 24
r 0.348 0 3 cbr 1000 ------- 1 0.0 3.0 23 23
+ 0.35 0 3 cbr 1000 ------- 1 0.0 3.0 25 25
- 0.35 0 3 cbr 1000 ------- 1 0.0 3.0 25 25
r 0.358 0 3 cbr 1000 ------- 1 0.0 3.0 24 24
+ 0.36 0 3 cbr 1000 ------- 1 0.0 3.0 26 26
- 0.36 0 3 cbr 1000 ------- 1 0.0 3.0 26 26
r 0.368 0 3 cbr 1000 ------- 1 0.0 3.0 25 25
+ 0.37 0 3 cbr 1000 ------- 1 0.0 3.0 27 27
- 0.37 0 3 cbr 1000 ------- 1 0.0 3.0 27 27
r 0.378 0 3 cbr 1000 ------- 1 0.0 3.0 26 26
+ 0.38 0 3 cbr 1000 ------- 1 0.0 3.0 28 28
- 0.38 0 3 cbr 1000 ------- 1 0.0 3.0 28 28
r 0.388 0 3 cbr 1000 ------- 1 0.0 3.0 27 27
+ 0.39 0 3 cbr 1000 ------- 1 0.0 3.0 29 29
- 0.39 0 3 cbr 1000 ------- 1 0.0 3.0 29 29
r 0.398 0 3 cbr 1000 ------- 1 0.0 3.0 28 28
+ 0.4 0 3 cbr 1000 ------- 1 0.0 3.0 30 30
- 0.4 0 3 cbr 1000 ------- 1 0.0 3.0 30 30
r 0.408 0 3 cbr 1000 ------- 1 0.0 3.0 29 29
+ 0.41 0 3 cbr 1000 ------- 1 0.0 3.0 31 31
- 0.41 0 3 cbr 1000 ------- 1 0.0 3.0 31 31
r 0.418 0 3 cbr 1000 ------- 1 0.0 3.0 30 30
+ 0.42 0 3 cbr 1000 ------- 1 0.0 3.0 32 32
- 0.42 0 3 cbr 1000 ------- 1 0.0 3.0 32 32
r 0.428 0 3 cbr 1000 ------- 1 0.0 3.0 31 31
+ 0.43 0 3 cbr 1000 ------- 1 0.0 3.0 33 33
- 0.43 0 3 cbr 1000 ------- 1 0.0 3.0 33 33
r 0.438 0 3 cbr 1000 ------- 1 0.0 3.0 32 32
+ 0.44 0 3 cbr 1000 ------- 1 0.0 3.0 34 34
- 0.44 0 3 cbr 1000 ------- 1 0.0 3.0 34 34
r 0.448 0 3 cbr 1000 ------- 1 0.0 3.0 33 33
+ 0.45 0 3 cbr 1000 ------- 1 0.0 3.0 35 35
- 0.45 0 3 cbr 1000 ------- 1 0.0 3.0 35 35
r 0.458 0 3 cbr 1000 ------- 1 0.0 3.0 34 34
+ 0.46 0 3 cbr 1000 ------- 1 0.0 3.0 36 36
- 0.46 0 3 cbr 1000 ------- 1 0.0 3.0 36 36
r 0.468 0 3 cbr 1000 ------- 1 0.0 3.0 35 35
+ 0.47 0 3 cbr 1000 ------- 1 0.0 3.0 37 37
- 0.47 0 3 cbr 1000 ------- 1 0.0 3.0 37 37
r 0.478 0 3 cbr 1000 ------- 1 0.0 3.0 36 36
+ 0.48 0 3 cbr 1000 ------- 1 0.0 3.0 38 38
- 0.48 0 3 cbr 1000 ------- 1 0.0 3.0 38 38
r 0.488 0 3 cbr 1000 ------- 1 0.0 3.0 37 37
+ 0.49 0 3 cbr 1000 ------- 1 0.0 3.0 39 39
- 0.49 0 3 cbr 1000 ------- 1 0.0 3.0 39 39
r 0.498 0 3 cbr 1000 ------- 1 0.0 3.0 38 38
+ 0.5 0 3 cbr 1000 ------- 1 0.0 3.0 40 40
- 0.5 0 3 cbr 1000 ------- 1 0.0 3.0 40 40
r 0.508 0 3 cbr 1000 ------- 1 0.0 3.0 39 39
+ 0.51 0 3 cbr 1000 ------- 1 0.0 3.0 41 41
- 0.51 0 3 cbr 1000 ------- 1 0.0 3.0 41 41
r 0.518 0 3 cbr 1000 ------- 1 0.0 3.0 40 40
+ 0.52 0 3 cbr 1000 ------- 1 0.0 3.0 42 42
- 0.52 0 3 cbr 1000 ------- 1 0.0 3.0 42 42
r 0.528 0 3 cbr 1000 ------- 1 0.0 3.0 41 41
+ 0.53 0 3 cbr 1000 ------- 1 0.0 3.0 43 43
- 0.53 0 3 cbr 1000 ------- 1 0.0 3.0 43 43
r 0.538 0 3 cbr 1000 ------- 1 0.0 3.0 42 42
+ 0.54 0 3 cbr 1000 ------- 1 0.0 3.0 44 44
- 0.54 0 3 cbr 1000 ------- 1 0.0 3.0 44 44
r 0.548 0 3 cbr 1000 ------- 1 0.0 3.0 43 43
+ 0.55 0 3 cbr 1000 ------- 1 0.0 3.0 45 45
- 0.55 0 3 cbr 1000 ------- 1 0.0 3.0 45 45
r 0.558 0 3 cbr 1000 ------- 1 0.0 3.0 44 44
+ 0.56 0 3 cbr 1000 ------- 1 0.0 3.0 46 46
- 0.56 0 3 cbr 1000 ------- 1 0.0 3.0 46 46
r 0.568 0 3 cbr 1000 ------- 1 0.0 3.0 45 45
+ 0.57 0 3 cbr 1000 ------- 1 0.0 3.0 47 47
- 0.57 0 3 cbr 1000 ------- 1 0.0 3.0 47 47
r 0.578 0 3 cbr 1000 ------- 1 0.0 3.0 46 46
+ 0.58 0 3 cbr 1000 ------- 1 0.0 3.0 48 48
- 0.58 0 3 cbr 1000 ------- 1 0.0 3.0 48 48
r 0.588 0 3 cbr 1000 ------- 1 0.0 3.0 47 47
+ 0.59 0 3 cbr 1000 ------- 1 0.0 3.0 49 49
- 0.59 0 3 cbr 1000 ------- 1 0.0 3.0 49 49
r 0.598 0 3 cbr 1000 ------- 1 0.0 3.0 48 48
+ 0.6 0 3 cbr 1000 ------- 1 0.0 3.0 50 50
- 0.6 0 3 cbr 1000 ------- 1 0.0 3.0 50 50
r 0.608 0 3 cbr 1000 ------- 1 0.0 3.0 49 49
+ 0.61 0 3 cbr 1000 ------- 1 0.0 3.0 51 51
- 0.61 0 3 cbr 1000 ------- 1 0.0 3.0 51 51
r 0.618 0 3 cbr 1000 ------- 1 0.0 3.0 50 50
+ 0.62 0 3 cbr 1000 ------- 1 0.0 3.0 52 52
- 0.62 0 3 cbr 1000 ------- 1 0.0 3.0 52 52
r 0.628 0 3 cbr 1000 ------- 1 0.0 3.0 51 51
+ 0.63 0 3 cbr 1000 ------- 1 0.0 3.0 53 53
- 0.63 0 3 cbr 1000 ------- 1 0.0 3.0 53 53
r 0.638 0 3 cbr 1000 ------- 1 0.0 3.0 52 52
+ 0.64 0 3 cbr 1000 ------- 1 0.0 3.0 54 54
- 0.64 0 3 cbr 1000 ------- 1 0.0 3.0 54 54
r 0.648 0 3 cbr 1000 ------- 1 0.0 3.0 53 53
+ 0.65 0 3 cbr 1000 ------- 1 0.0 3.0 55 55
- 0.65 0 3 cbr 1000 ------- 1 0.0 3.0 55 55
r 0.658 0 3 cbr 1000 ------- 1 0.0 3.0 54 54
+ 0.66 0 3 cbr 1000 ------- 1 0.0 3.0 56 56
- 0.66 0 3 cbr 1000 ------- 1 0.0 3.0 56 56
r 0.668 0 3 cbr 1000 ------- 1 0.0 3.0 55 55
+ 0.67 0 3 cbr 1000 ------- 1 0.0 3.0 57 57
- 0.67 0 3 cbr 1000 ------- 1 0.0 3.0 57 57
r 0.678 0 3 cbr 1000 ------- 1 0.0 3.0 56 56
+ 0.68 0 3 cbr 1000 ------- 1 0.0 3.0 58 58
- 0.68 0 3 cbr 1000 ------- 1 0.0 3.0 58 58
r 0.688 0 3 cbr 1000 ------- 1 0.0 3.0 57 57
+ 0.69 0 3 cbr 1000 ------- 1 0.0 3.0 59 59
- 0.69 0 3 cbr 1000 ------- 1 0.0 3.0 59 59
r 0.698 0 3 cbr 1000 ------- 1 0.0 3.0 58 58
+ 0.7 0 3 cbr 1000 ------- 1 0.0 3.0 60 60
- 0.7 0 3 cbr 1000 ------- 1 0.0 3.0 60 60
r 0.708 0 3 cbr 1000 ------- 1 0.0 3.0 59 59
+ 0.71 0 3 cbr 1000 ------- 1 0.0 3.0 61 61
- 0.71 0 3 cbr 1000 ------- 1 0.0 3.0 61 61
r 0.718 0 3 cbr 1000 ------- 1 0.0 3.0 60 60
+ 0.72 0 3 cbr 1000 ------- 1 0.0 3.0 62 62
- 0.72 0 3 cbr 1000 ------- 1 0.0 3.0 62 62
r 0.728 0 3 cbr 1000 ------- 1 0.0 3.0 61 61
+ 0.73 0 3 cbr 1000 ------- 1 0.0 3.0 63 63
- 0.73 0 3 cbr 1000 ------- 1 0.0 3.0 63 63
r 0.738 0 3 cbr 1000 ------- 1 0.0 3.0 62 62
+ 0.74 0 3 cbr 1000 ------- 1 0.0 3.0 64 64
- 0.74 0 3 cbr 1000 ------- 1 0.0 3.0 64 64
r 0.748 0 3 cbr 1000 ------- 1 0.0 3.0 63 63
+ 0.75 0 3 cbr 1000 ------- 1 0.0 3.0 65 65
- 0.75 0 3 cbr 1000 ------- 1 0.0 3.0 65 65
r 0.758 0 3 cbr 1000 ------- 1 0.0 3.0 64 64
+ 0.76 0 3 cbr 1000 ------- 1 0.0 3.0 66 66
- 0.76 0 3 cbr 1000 ------- 1 0.0 3.0 66 66
r 0.768 0 3 cbr 1000 ------- 1 0.0 3.0 65 65
+ 0.77 0 3 cbr 1000 ------- 1 0.0 3.0 67 67
- 0.77 0 3 cbr 1000 ------- 1 0.0 3.0 67 67
r 0.778 0 3 cbr 1000 ------- 1 0.0 3.0 66 66
+ 0.78 0 3 cbr 1000 ------- 1 0.0 3.0 68 68
- 0.78 0 3 cbr 1000 ------- 1 0.0 3.0 68 68
r 0.788 0 3 cbr 1000 ------- 1 0.0 3.0 67 67
+ 0.79 0 3 cbr 1000 ------- 1 0.0 3.0 69 69
- 0.79 0 3 cbr 1000 ------- 1 0.0 3.0 69 69
r 0.798 0 3 cbr 1000 ------- 1 0.0 3.0 68 68
+ 0.8 0 3 cbr 1000 ------- 1 0.0 3.0 70 70
- 0.8 0 3 cbr 1000 ------- 1 0.0 3.0 70 70
r 0.808 0 3 cbr 1000 ------- 1 0.0 3.0 69 69
+ 0.81 0 3 cbr 1000 ------- 1 0.0 3.0 71 71
- 0.81 0 3 cbr 1000 ------- 1 0.0 3.0 71 71
r 0.818 0 3 cbr 1000 ------- 1 0.0 3.0 70 70
+ 0.82 0 3 cbr 1000 ------- 1 0.0 3.0 72 72
- 0.82 0 3 cbr 1000 ------- 1 0.0 3.0 72 72
r 0.828 0 3 cbr 1000 ------- 1 0.0 3.0 71 71
+ 0.83 0 3 cbr 1000 ------- 1 0.0 3.0 73 73
- 0.83 0 3 cbr 1000 ------- 1 0.0 3.0 73 73
r 0.838 0 3 cbr 1000 ------- 1 0.0 3.0 72 72
+ 0.84 0 3 cbr 1000 ------- 1 0.0 3.0 74 74
- 0.84 0 3 cbr 1000 ------- 1 0.0 3.0 74 74
r 0.848 0 3 cbr 1000 ------- 1 0.0 3.0 73 73
+ 0.85 0 3 cbr 1000 ------- 1 0.0 3.0 75 75
- 0.85 0 3 cbr 1000 ------- 1 0.0 3.0 75 75
r 0.858 0 3 cbr 1000 ------- 1 0.0 3.0 74 74
+ 0.86 0 3 cbr 1000 ------- 1 0.0 3.0 76 76
- 0.86 0 3 cbr 1000 ------- 1 0.0 3.0 76 76
r 0.868 0 3 cbr 1000 ------- 1 0.0 3.0 75 75
+ 0.87 0 3 cbr 1000 ------- 1 0.0 3.0 77 77
- 0.87 0 3 cbr 1000 ------- 1 0.0 3.0 77 77
r 0.878 0 3 cbr 1000 ------- 1 0.0 3.0 76 76
+ 0.88 0 3 cbr 1000 ------- 1 0.0 3.0 78 78
- 0.88 0 3 cbr 1000 ------- 1 0.0 3.0 78 78
r 0.888 0 3 cbr 1000 ------- 1 0.0 3.0 77 77
+ 0.89 0 3 cbr 1000 ------- 1 0.0 3.0 79 79
- 0.89 0 3 cbr 1000 ------- 1 0.0 3.0 79 79
r 0.898 0 3 cbr 1000 ------- 1 0.0 3.0 78 78
+ 0.9 0 3 cbr 1000 ------- 1 0.0 3.0 80 80
- 0.9 0 3 cbr 1000 ------- 1 0.0 3.0 80 80
r 0.908 0 3 cbr 1000 ------- 1 0.0 3.0 79 79
+ 0.91 0 3 cbr 1000 ------- 1 0.0 3.0 81 81
- 0.91 0 3 cbr 1000 ------- 1 0.0 3.0 81 81
r 0.918 0 3 cbr 1000 ------- 1 0.0 3.0 80 80
+ 0.92 0 3 cbr 1000 ------- 1 0.0 3.0 82 82
- 0.92 0 3 cbr 1000 ------- 1 0.0 3.0 82 82
r 0.928 0 3 cbr 1000 ------- 1 0.0 3.0 81 81
+ 0.93 0 3 cbr 1000 ------- 1 0.0 3.0 83 83
- 0.93 0 3 cbr 1000 ------- 1 0.0 3.0 83 83
r 0.938 0 3 cbr 1000 ------- 1 0.0 3.0 82 82
+ 0.94 0 3 cbr 1000 ------- 1 0.0 3.0 84 84
- 0.94 0 3 cbr 1000 ------- 1 0.0 3.0 84 84
r 0.948 0 3 cbr 1000 ------- 1 0.0 3.0 83 83
+ 0.95 0 3 cbr 1000 ------- 1 0.0 3.0 85 85
- 0.95 0 3 cbr 1000 ------- 1 0.0 3.0 85 85
r 0.958 0 3 cbr 1000 ------- 1 0.0 3.0 84 84
+ 0.96 0 3 cbr 1000 ------- 1 0.0 3.0 86 86
- 0.96 0 3 cbr 1000 ------- 1 0.0 3.0 86 86
r 0.968 0 3 cbr 1000 ------- 1 0.0 3.0 85 85
+ 0.97 0 3 cbr 1000 ------- 1 0.0 3.0 87 87
- 0.97 0 3 cbr 1000 ------- 1 0.0 3.0 87 87
r 0.978 0 3 cbr 1000 ------- 1 0.0 3.0 86 86
+ 0.98 0 3 cbr 1000 ------- 1 0.0 3.0 88 88
- 0.98 0 3 cbr 1000 ------- 1 0.0 3.0 88 88
r 0.988 0 3 cbr 1000 ------- 1 0.0 3.0 87 87
+ 0.99 0 3 cbr 1000 ------- 1 0.0 3.0 89 89
- 0.99 0 3 cbr 1000 ------- 1 0.0 3.0 89 89
r 0.998 0 3 cbr 1000 ------- 1 0.0 3.0 88 88
+ 1 0 3 cbr 1000 ------- 1 0.0 3.0 90 90
- 1 0 3 cbr 1000 ------- 1 0.0 3.0 90 90
r 1.008 0 3 cbr 1000 ------- 1 0.0 3.0 89 89
+ 1.01 0 3 cbr 1000 ------- 1 0.0 3.0 91 91
- 1.01 0 3 cbr 1000 ------- 1 0.0 3.0 91 91
r 1.018 0 3 cbr 1000 ------- 1 0.0 3.0 90 90
+ 1.02 0 3 cbr 1000 ------- 1 0.0 3.0 92 92
- 1.02 0 3 cbr 1000 ------- 1 0.0 3.0 92 92
r 1.028 0 3 cbr 1000 ------- 1 0.0 3.0 91 91
+ 1.03 0 3 cbr 1000 ------- 1 0.0 3.0 93 93
- 1.03 0 3 cbr 1000 ------- 1 0.0 3.0 93 93
r 1.038 0 3 cbr 1000 ------- 1 0.0 3.0 92 92
+ 1.04 0 3 cbr 1000 ------- 1 0.0 3.0 94 94
- 1.04 0 3 cbr 1000 ------- 1 0.0 3.0 94 94
r 1.048 0 3 cbr 1000 ------- 1 0.0 3.0 93 93
+ 1.05 0 3 cbr 1000 ------- 1 0.0 3.0 95 95
- 1.05 0 3 cbr 1000 ------- 1 0.0 3.0 95 95
r 1.058 0 3 cbr 1000 ------- 1 0.0 3.0 94 94
+ 1.06 0 3 cbr 1000 ------- 1 0.0 3.0 96 96
- 1.06 0 3 cbr 1000 ------- 1 0.0 3.0 96 96
r 1.068 0 3 cbr 1000 ------- 1 0.0 3.0 95 95
+ 1.07 0 3 cbr 1000 ------- 1 0.0 3.0 97 97
- 1.07 0 3 cbr 1000 ------- 1 0.0 3.0 97 97
r 1.078 0 3 cbr 1000 ------- 1 0.0 3.0 96 96
+ 1.08 0 3 cbr 1000 ------- 1 0.0 3.0 98 98
- 1.08 0 3 cbr 1000 ------- 1 0.0 3.0 98 98
r 1.088 0 3 cbr 1000 ------- 1 0.0 3.0 97 97
+ 1.09 0 3 cbr 1000 ------- 1 0.0 3.0 99 99
- 1.09 0 3 cbr 1000 ------- 1 0.0 3.0 99 99
r 1.098 0 3 cbr 1000 ------- 1 0.0 3.0 98 98
+ 1.1 0 3 cbr 1000 ------- 1 0.0 3.0 100 100
- 1.1 0 3 cbr 1000 ------- 1 0.0 3.0 100 100
r 1.108 0 3 cbr 1000 ------- 1 0.0 3.0 99 99
+ 1.11 0 3 cbr 1000 ------- 1 0.0 3.0 101 101
- 1.11 0 3 cbr 1000 ------- 1 0.0 3.0 101 101
r 1.118 0 3 cbr 1000 ------- 1 0.0 3.0 100 100
+ 1.12 0 3 cbr 1000 ------- 1 0.0 3.0 102 102
- 1.12 0 3 cbr 1000 ------- 1 0.0 3.0 102 102
r 1.128 0 3 cbr 1000 ------- 1 0.0 3.0 101 101
+ 1.13 0 3 cbr 1000 ------- 1 0.0 3.0 103 103
- 1.13 0 3 cbr 1000 ------- 1 0.0 3.0 103 103
r 1.138 0 3 cbr 1000 ------- 1 0.0 3.0 102 102
+ 1.14 0 3 cbr 1000 ------- 1 0.0 3.0 104 104
- 1.14 0 3 cbr 1000 ------- 1 0.0 3.0 104 104
r 1.148 0 3 cbr 1000 ------- 1 0.0 3.0 103 103
+ 1.15 0 3 cbr 1000 ------- 1 0.0 3.0 105 105
- 1.15 0 3 cbr 1000 ------- 1 0.0 3.0 105 105
r 1.158 0 3 cbr 1000 ------- 1 0.0 3.0 104 104
+ 1.16 0 3 cbr 1000 ------- 1 0.0 3.0 106 106
- 1.16 0 3 cbr 1000 ------- 1 0.0 3.0 106 106
r 1.168 0 3 cbr 1000 ------- 1 0.0 3.0 105 105
+ 1.17 0 3 cbr 1000 ------- 1 0.0 3.0 107 107
- 1.17 0 3 cbr 1000 ------- 1 0.0 3.0 107 107
r 1.178 0 3 cbr 1000 ------- 1 0.0 3.0 106 106
+ 1.18 0 3 cbr 1000 ------- 1 0.0 3.0 108 108
- 1.18 0 3 cbr 1000 ------- 1 0.0 3.0 108 108
r 1.188 0 3 cbr 1000 ------- 1 0.0 3.0 107 107
+ 1.19 0 3 cbr 1000 ------- 1 0.0 3.0 109 109
- 1.19 0 3 cbr 1000 ------- 1 0.0 3.0 109 109
r 1.198 0 3 cbr 1000 ------- 1 0.0 3.0 108 108
+ 1.2 0 3 cbr 1000 ------- 1 0.0 3.0 110 110
- 1.2 0 3 cbr 1000 ------- 1 0.0 3.0 110 110
r 1.208 0 3 cbr 1000 ------- 1 0.0 3.0 109 109
+ 1.21 0 3 cbr 1000 ------- 1 0.0 3.0 111 111
- 1.21 0 3 cbr 1000 ------- 1 0.0 3.0 111 111
r 1.218 0 3 cbr 1000 ------- 1 0.0 3.0 110 110
+ 1.22 0 3 cbr 1000 ------- 1 0.0 3.0 112 112
- 1.22 0 3 cbr 1000 ------- 1 0.0 3.0 112 112
r 1.228 0 3 cbr 1000 ------- 1 0.0 3.0 111 111
+ 1.23 0 3 cbr 1000 ------- 1 0.0 3.0 113 113
- 1.23 0 3 cbr 1000 ------- 1 0.0 3.0 113 113
r 1.238 0 3 cbr 1000 ------- 1 0.0 3.0 112 112
+ 1.24 0 3 cbr 1000 ------- 1 0.0 3.0 114 114
- 1.24 0 3 cbr 1000 ------- 1 0.0 3.0 114 114
r 1.248 0 3 cbr 1000 ------- 1 0.0 3.0 113 113
+ 1.25 0 3 cbr 1000 ------- 1 0.0 3.0 115 115
- 1.25 0 3 cbr 1000 ------- 1 0.0 3.0 115 115
r 1.258 0 3 cbr 1000 ------- 1 0.0 3.0 114 114
+ 1.26 0 3 cbr 1000 ------- 1 0.0 3.0 116 116
- 1.26 0 3 cbr 1000 ------- 1 0.0 3.0 116 116
r 1.268 0 3 cbr 1000 ------- 1 0.0 3.0 115 115
+ 1.27 0 3 cbr 1000 ------- 1 0.0 3.0 117 117
- 1.27 0 3 cbr 1000 ------- 1 0.0 3.0 117 117
r 1.278 0 3 cbr 1000 ------- 1 0.0 3.0 116 116
+ 1.28 0 3 cbr 1000 ------- 1 0.0 3.0 118 118
- 1.28 0 3 cbr 1000 ------- 1 0.0 3.0 118 118
r 1.288 0 3 cbr 1000 ------- 1 0.0 3.0 117 117
+ 1.29 0 3 cbr 1000 ------- 1 0.0 3.0 119 119
- 1.29 0 3 cbr 1000 ------- 1 0.0 3.0 119 119
r 1.298 0 3 cbr 1000 ------- 1 0.0 3.0 118 118
+ 1.3 0 3 cbr 1000 ------- 1 0.0 3.0 120 120
- 1.3 0 3 cbr 1000 ------- 1 0.0 3.0 120 120
r 1.308 0 3 cbr 1000 ------- 1 0.0 3.0 119 119
+ 1.31 0 3 cbr 1000 ------- 1 0.0 3.0 121 121
- 1.31 0 3 cbr 1000 ------- 1 0.0 3.0 121 121
r 1.318 0 3 cbr 1000 ------- 1 0.0 3.0 120 120
+ 1.32 0 3 cbr 1000 ------- 1 0.0 3.0 122 122
- 1.32 0 3 cbr 1000 ------- 1 0.0 3.0 122 122
r 1.328 0 3 cbr 1000 ------- 1 0.0 3.0 121 121
+ 1.33 0 3 cbr 1000 ------- 1 0.0 3.0 123 123
- 1.33 0 3 cbr 1000 ------- 1 0.0 3.0 123 123
r 1.338 0 3 cbr 1000 ------- 1 0.0 3.0 122 122
+ 1.34 0 3 cbr 1000 ------- 1 0.0 3.0 124 124
- 1.34 0 3 cbr 1000 ------- 1 0.0 3.0 124 124
r 1.348 0 3 cbr 1000 ------- 1 0.0 3.0 123 123
+ 1.35 0 3 cbr 1000 ------- 1 0.0 3.0 125 125
- 1.35 0 3 cbr 1000 ------- 1 0.0 3.0 125 125
r 1.358 0 3 cbr 1000 ------- 1 0.0 3.0 124 124
+ 1.36 0 3 cbr 1000 ------- 1 0.0 3.0 126 126
- 1.36 0 3 cbr 1000 ------- 1 0.0 3.0 126 126
r 1.368 0 3 cbr 1000 ------- 1 0.0 3.0 125 125
+ 1.37 0 3 cbr 1000 ------- 1 0.0 3.0 127 127
- 1.37 0 3 cbr 1000 ------- 1 0.0 3.0 127 127
r 1.378 0 3 cbr 1000 ------- 1 0.0 3.0 126 126
+ 1.38 0 3 cbr 1000 ------- 1 0.0 3.0 128 128
- 1.38 0 3 cbr 1000 ------- 1 0.0 3.0 128 128
r 1.388 0 3 cbr 1000 ------- 1 0.0 3.0 127 127
+ 1.39 0 3 cbr 1000 ------- 1 0.0 3.0 129 129
- 1.39 0 3 cbr 1000 ------- 1 0.0 3.0 129 129
r 1.398 0 3 cbr 1000 ------- 1 0.0 3.0 128 128
+ 1.4 0 3 cbr 1000 ------- 1 0.0 3.0 130 130
- 1.4 0 3 cbr 1000 ------- 1 0.0 3.0 130 130
r 1.408 0 3 cbr 1000 ------- 1 0.0 3.0 129 129
+ 1.41 0 3 cbr 1000 ------- 1 0.0 3.0 131 131
- 1.41 0 3 cbr 1000 ------- 1 0.0 3.0 131 131
r 1.418 0 3 cbr 1000 ------- 1 0.0 3.0 130 130
+ 1.42 0 3 cbr 1000 ------- 1 0.0 3.0 132 132
- 1.42 0 3 cbr 1000 ------- 1 0.0 3.0 132 132
r 1.428 0 3 cbr 1000 ------- 1 0.0 3.0 131 131
+ 1.43 0 3 cbr 1000 ------- 1 0.0 3.0 133 133
- 1.43 0 3 cbr 1000 ------- 1 0.0 3.0 133 133
r 1.438 0 3 cbr 1000 ------- 1 0.0 3.0 132 132
+ 1.44 0 3 cbr 1000 ------- 1 0.0 3.0 134 134
- 1.44 0 3 cbr 1000 ------- 1 0.0 3.0 134 134
r 1.448 0 3 cbr 1000 ------- 1 0.0 3.0 133 133
+ 1.45 0 3 cbr 1000 ------- 1 0.0 3.0 135 135
- 1.45 0 3 cbr 1000 ------- 1 0.0 3.0 135 135
r 1.458 0 3 cbr 1000 ------- 1 0.0 3.0 134 134
+ 1.46 0 3 cbr 1000 ------- 1 0.0 3.0 136 136
- 1.46 0 3 cbr 1000 ------- 1 0.0 3.0 136 136
r 1.468 0 3 cbr 1000 ------- 1 0.0 3.0 135 135
+ 1.47 0 3 cbr 1000 ------- 1 0.0 3.0 137 137
- 1.47 0 3 cbr 1000 ------- 1 0.0 3.0 137 137
r 1.478 0 3 cbr 1000 ------- 1 0.0 3.0 136 136
+ 1.48 0 3 cbr 1000 ------- 1 0.0 3.0 138 138
- 1.48 0 3 cbr 1000 ------- 1 0.0 3.0 138 138
r 1.488 0 3 cbr 1000 ------- 1 0.0 3.0 137 137
+ 1.49 0 3 cbr 1000 ------- 1 0.0 3.0 139 139
- 1.49 0 3 cbr 1000 ------- 1 0.0 3.0 139 139
r 1.498 0 3 cbr 1000 ------- 1 0.0 3.0 138 138
+ 1.5 0 3 cbr 1000 ------- 1 0.0 3.0 140 140
- 1.5 0 3 cbr 1000 ------- 1 0.0 3.0 140 140
r 1.508 0 3 cbr 1000 ------- 1 0.0 3.0 139 139
+ 1.51 0 3 cbr 1000 ------- 1 0.0 3.0 141 141
- 1.51 0 3 cbr 1000 ------- 1 0.0 3.0 141 141
r 1.518 0 3 cbr 1000 ------- 1 0.0 3.0 140 140
+ 1.52 0 3 cbr 1000 ------- 1 0.0 3.0 142 142
- 1.52 0 3 cbr 1000 ------- 1 0.0 3.0 142 142
r 1.528 0 3 cbr 1000 ------- 1 0.0 3.0 141 141
+ 1.53 0 3 cbr 1000 ------- 1 0.0 3.0 143 143
- 1.53 0 3 cbr 1000 ------- 1 0.0 3.0 143 143
r 1.538 0 3 cbr 1000 ------- 1 0.0 3.0 142 142
+ 1.54 0 3 cbr 1000 ------- 1 0.0 3.0 144 144
- 1.54 0 3 cbr 1000 ------- 1 0.0 3.0 144 144
r 1.548 0 3 cbr 1000 ------- 1 0.0 3.0 143 143
+ 1.55 0 3 cbr 1000 ------- 1 0.0 3.0 145 145
- 1.55 0 3 cbr 1000 ------- 1 0.0 3.0 145 145
r 1.558 0 3 cbr 1000 ------- 1 0.0 3.0 144 144
+ 1.56 0 3 cbr 1000 ------- 1 0.0 3.0 146 146
- 1.56 0 3 cbr 1000 ------- 1 0.0 3.0 146 146
r 1.568 0 3 cbr 1000 ------- 1 0.0 3.0 145 145
+ 1.57 0 3 cbr 1000 ------- 1 0.0 3.0 147 147
- 1.57 0 3 cbr 1000 ------- 1 0.0 3.0 147 147
r 1.578 0 3 cbr 1000 ------- 1 0.0 3.0 146 146
+ 1.58 0 3 cbr 1000 ------- 1 0.0 3.0 148 148
- 1.58 0 3 cbr 1000 ------- 1 0.0 3.0 148 148
r 1.588 0 3 cbr 1000 ------- 1 0.0 3.0 147 147
+ 1.59 0 3 cbr 1000 ------- 1 0.0 3.0 149 149
- 1.59 0 3 cbr 1000 ------- 1 0.0 3.0 149 149
r 1.598 0 3 cbr 1000 ------- 1 0.0 3.0 148 148
+ 1.6 0 3 cbr 1000 ------- 1 0.0 3.0 150 150
- 1.6 0 3 cbr 1000 ------- 1 0.0 3.0 150 150
r 1.608 0 3 cbr 1000 ------- 1 0.0 3.0 149 149
+ 1.61 0 3 cbr 1000 ------- 1 0.0 3.0 151 151
- 1.61 0 3 cbr 1000 ------- 1 0.0 3.0 151 151
r 1.618 0 3 cbr 1000 ------- 1 0.0 3.0 150 150
+ 1.62 0 3 cbr 1000 ------- 1 0.0 3.0 152 152
- 1.62 0 3 cbr 1000 ------- 1 0.0 3.0 152 152
r 1.628 0 3 cbr 1000 ------- 1 0.0 3.0 151 151
+ 1.63 0 3 cbr 1000 ------- 1 0.0 3.0 153 153
- 1.63 0 3 cbr 1000 ------- 1 0.0 3.0 153 153
r 1.638 0 3 cbr 1000 ------- 1 0.0 3.0 152 152
+ 1.64 0 3 cbr 1000 ------- 1 0.0 3.0 154 154
- 1.64 0 3 cbr 1000 ------- 1 0.0 3.0 154 154
r 1.648 0 3 cbr 1000 ------- 1 0.0 3.0 153 153
+ 1.65 0 3 cbr 1000 ------- 1 0.0 3.0 155 155
- 1.65 0 3 cbr 1000 ------- 1 0.0 3.0 155 155
r 1.658 0 3 cbr 1000 ------- 1 0.0 3.0 154 154
+ 1.66 0 3 cbr 1000 ------- 1 0.0 3.0 156 156
- 1.66 0 3 cbr 1000 ------- 1 0.0 3.0 156 156
r 1.668 0 3 cbr 1000 ------- 1 0.0 3.0 155 155
+ 1.67 0 3 cbr 1000 ------- 1 0.0 3.0 157 157
- 1.67 0 3 cbr 1000 ------- 1 0.0 3.0 157 157
r 1.678 0 3 cbr 1000 ------- 1 0.0 3.0 156 156
+ 1.68 0 3 cbr 1000 ------- 1 0.0 3.0 158 158
- 1.68 0 3 cbr 1000 ------- 1 0.0 3.0 158 158
r 1.688 0 3 cbr 1000 ------- 1 0.0 3.0 157 157
+ 1.69 0 3 cbr 1000 ------- 1 0.0 3.0 159 159
- 1.69 0 3 cbr 1000 ------- 1 0.0 3.0 159 159
r 1.698 0 3 cbr 1000 ------- 1 0.0 3.0 158 158
+ 1.7 0 3 cbr 1000 ------- 1 0.0 3.0 160 160
- 1.7 0 3 cbr 1000 ------- 1 0.0 3.0 160 160
r 1.708 0 3 cbr 1000 ------- 1 0.0 3.0 159 159
+ 1.71 0 3 cbr 1000 ------- 1 0.0 3.0 161 161
- 1.71 0 3 cbr 1000 ------- 1 0.0 3.0 161 161
r 1.718 0 3 cbr 1000 ------- 1 0.0 3.0 160 160
+ 1.72 0 3 cbr 1000 ------- 1 0.0 3.0 162 162
- 1.72 0 3 cbr 1000 ------- 1 0.0 3.0 162 162
r 1.728 0 3 cbr 1000 ------- 1 0.0 3.0 161 161
+ 1.73 0 3 cbr 1000 ------- 1 0.0 3.0 163 163
- 1.73 0 3 cbr 1000 ------- 1 0.0 3.0 163 163
r 1.738 0 3 cbr 1000 ------- 1 0.0 3.0 162 162
+ 1.74 0 3 cbr 1000 ------- 1 0.0 3.0 164 164
- 1.74 0 3 cbr 1000 ------- 1 0.0 3.0 164 164
r 1.748 0 3 cbr 1000 ------- 1 0.0 3.0 163 163
+ 1.75 0 3 cbr 1000 ------- 1 0.0 3.0 165 165
- 1.75 0 3 cbr 1000 ------- 1 0.0 3.0 165 165
r 1.758 0 3 cbr 1000 ------- 1 0.0 3.0 164 164
+ 1.76 0 3 cbr 1000 ------- 1 0.0 3.0 166 166
- 1.76 0 3 cbr 1000 ------- 1 0.0 3.0 166 166
r 1.768 0 3 cbr 1000 ------- 1 0.0 3.0 165 165
+ 1.77 0 3 cbr 1000 ------- 1 0.0 3.0 167 167
- 1.77 0 3 cbr 1000 ------- 1 0.0 3.0 167 167
r 1.778 0 3 cbr 1000 ------- 1 0.0 3.0 166 166
+ 1.78 0 3 cbr 1000 ------- 1 0.0 3.0 168 168
- 1.78 0 3 cbr 1000 ------- 1 0.0 3.0 168 168
r 1.788 0 3 cbr 1000 ------- 1 0.0 3.0 167 167
+ 1.79 0 3 cbr 1000 ------- 1 0.0 3.0 169 169
- 1.79 0 3 cbr 1000 ------- 1 0.0 3.0 169 169
r 1.798 0 3 cbr 1000 ------- 1 0.0 3.0 168 168
+ 1.8 0 3 cbr 1000 ------- 1 0.0 3.0 170 170
- 1.8 0 3 cbr 1000 ------- 1 0.0 3.0 170 170
r 1.808 0 3 cbr 1000 ------- 1 0.0 3.0 169 169
+ 1.81 0 3 cbr 1000 ------- 1 0.0 3.0 171 171
- 1.81 0 3 cbr 1000 ------- 1 0.0 3.0 171 171
r 1.818 0 3 cbr 1000 ------- 1 0.0 3.0 170 170
+ 1.82 0 3 cbr 1000 ------- 1 0.0 3.0 172 172
- 1.82 0 3 cbr 1000 ------- 1 0.0 3.0 172 172
r 1.828 0 3 cbr 1000 ------- 1 0.0 3.0 171 171
+ 1.83 0 3 cbr 1000 ------- 1 0.0 3.0 173 173
- 1.83 0 3 cbr 1000 ------- 1 0.0 3.0 173 173
r 1.838 0 3 cbr 1000 ------- 1 0.0 3.0 172 172
+ 1.84 0 3 cbr 1000 ------- 1 0.0 3.0 174 174
- 1.84 0 3 cbr 1000 ------- 1 0.0 3.0 174 174
r 1.848 0 3 cbr 1000 ------- 1 0.0 3.0 173 173
+ 1.85 0 3 cbr 1000 ------- 1 0.0 3.0 175 175
- 1.85 0 3 cbr 1000 ------- 1 0.0 3.0 175 175
r 1.858 0 3 cbr 1000 ------- 1 0.0 3.0 174 174
+ 1.86 0 3 cbr 1000 ------- 1 0.0 3.0 176 176
- 1.86 0 3 cbr 1000 ------- 1 0.0 3.0 176 176
r 1.868 0 3 cbr 1000 ------- 1 0.0 3.0 175 175
+ 1.87 0 3 cbr 1000 ------- 1 0.0 3.0 177 177
- 1.87 0 3 cbr 1000 ------- 1 0.0 3.0 177 177
r 1.878 0 3 cbr 1000 ------- 1 0.0 3.0 176 176
+ 1.88 0 3 cbr 1000 ------- 1 0.0 3.0 178 178
- 1.88 0 3 cbr 1000 ------- 1 0.0 3.0 178 178
r 1.888 0 3 cbr 1000 ------- 1 0.0 3.0 177 177
+ 1.89 0 3 cbr 1000 ------- 1 0.0 3.0 179 179
- 1.89 0 3 cbr 1000 ------- 1 0.0 3.0 179 179
r 1.898 0 3 cbr 1000 ------- 1 0.0 3.0 178 178
+ 1.9 0 3 cbr 1000 ------- 1 0.0 3.0 180 180
- 1.9 0 3 cbr 1000 ------- 1 0.0 3.0 180 180
r 1.908 0 3 cbr 1000 ------- 1 0.0 3.0 179 179
+ 1.91 0 3 cbr 1000 ------- 1 0.0 3.0 181 181
- 1.91 0 3 cbr 1000 ------- 1 0.0 3.0 181 181
r 1.918 0 3 cbr 1000 ------- 1 0.0 3.0 180 180
+ 1.92 0 3 cbr 1000 ------- 1 0.0 3.0 182 182
- 1.92 0 3 cbr 1000 ------- 1 0.0 3.0 182 182
r 1.928 0 3 cbr 1000 ------- 1 0.0 3.0 181 181
+ 1.93 0 3 cbr 1000 ------- 1 0.0 3.0 183 183
- 1.93 0 3 cbr 1000 ------- 1 0.0 3.0 183 183
r 1.938 0 3 cbr 1000 ------- 1 0.0 3.0 182 182
+ 1.94 0 3 cbr 1000 ------- 1 0.0 3.0 184 184
- 1.94 0 3 cbr 1000 ------- 1 0.0 3.0 184 184
r 1.948 0 3 cbr 1000 ------- 1 0.0 3.0 183 183
+ 1.95 0 3 cbr 1000 ------- 1 0.0 3.0 185 185
- 1.95 0 3 cbr 1000 ------- 1 0.0 3.0 185 185
r 1.958 0 3 cbr 1000 ------- 1 0.0 3.0 184 184
+ 1.96 0 3 cbr 1000 ------- 1 0.0 3.0 186 186
- 1.96 0 3 cbr 1000 ------- 1 0.0 3.0 186 186
r 1.968 0 3 cbr 1000 ------- 1 0.0 3.0 185 185
+ 1.97 0 3 cbr 1000 ------- 1 0.0 3.0 187 187
- 1.97 0 3 cbr 1000 ------- 1 0.0 3.0 187 187
r 1.978 0 3 cbr 1000 ------- 1 0.0 3.0 186 186
+ 1.98 0 3 cbr 1000 ------- 1 0.0 3.0 188 188
- 1.98 0 3 cbr 1000 ------- 1 0.0 3.0 188 188
r 1.988 0 3 cbr 1000 ------- 1 0.0 3.0 187 187
+ 1.99 0 3 cbr 1000 ------- 1 0.0 3.0 189 189
- 1.99 0 3 cbr 1000 ------- 1 0.0 3.0 189 189
r 1.998 0 3 cbr 1000 ------- 1 0.0 3.0 188 188
+ 2 0 3 cbr 1000 ------- 1 0.0 3.0 190 190
- 2 0 3 cbr 1000 ------- 1 0.0 3.0 190 190
r 2.008 0 3 cbr 1000 ------- 1 0.0 3.0 189 189
+ 2.01 0 3 cbr 1000 ------- 1 0.0 3.0 191 191
- 2.01 0 3 cbr 1000 ------- 1 0.0 3.0 191 191
r 2.018 0 3 cbr 1000 ------- 1 0.0 3.0 190 190
+ 2.02 0 3 cbr 1000 ------- 1 0.0 3.0 192 192
- 2.02 0 3 cbr 1000 ------- 1 0.0 3.0 192 192
r 2.028 0 3 cbr 1000 ------- 1 0.0 3.0 191 191
+ 2.03 0 3 cbr 1000 ------- 1 0.0 3.0 193 193
- 2.03 0 3 cbr 1000 ------- 1 0.0 3.0 193 193
r 2.038 0 3 cbr 1000 ------- 1 0.0 3.0 192 192
+ 2.04 0 3 cbr 1000 ------- 1 0.0 3.0 194 194
- 2.04 0 3 cbr 1000 ------- 1 0.0 3.0 194 194
r 2.048 0 3 cbr 1000 ------- 1 0.0 3.0 193 193
+ 2.05 0 3 cbr 1000 ------- 1 0.0 3.0 195 195
- 2.05 0 3 cbr 1000 ------- 1 0.0 3.0 195 195
r 2.058 0 3 cbr 1000 ------- 1 0.0 3.0 194 194
+ 2.06 0 3 cbr 1000 ------- 1 0.0 3.0 196 196
- 2.06 0 3 cbr 1000 ------- 1 0.0 3.0 196 196
r 2.068 0 3 cbr 1000 ------- 1 0.0 3.0 195 195
+ 2.07 0 3 cbr 1000 ------- 1 0.0 3.0 197 197
- 2.07 0 3 cbr 1000 ------- 1 0.0 3.0 197 197
r 2.078 0 3 cbr 1000 ------- 1 0.0 3.0 196 196
+ 2.08 0 3 cbr 1000 ------- 1 0.0 3.0 198 198
- 2.08 0 3 cbr 1000 ------- 1 0.0 3.0 198 198
r 2.088 0 3 cbr 1000 ------- 1 0.0 3.0 197 197
+ 2.09 0 3 cbr 1000 ------- 1 0.0 3.0 199 199
- 2.09 0 3 cbr 1000 ------- 1 0.0 3.0 199 199
r 2.098 0 3 cbr 1000 ------- 1 0.0 3.0 198 198
+ 2.1 0 3 cbr 1000 ------- 1 0.0 3.0 200 200
- 2.1 0 3 cbr 1000 ------- 1 0.0 3.0 200 200
r 2.108 0 3 cbr 1000 ------- 1 0.0 3.0 199 199
+ 2.11 0 3 cbr 1000 ------- 1 0.0 3.0 201 201
- 2.11 0 3 cbr 1000 ------- 1 0.0 3.0 201 201
r 2.118 0 3 cbr 1000 ------- 1 0.0 3.0 200 200
+ 2.12 0 3 cbr 1000 ------- 1 0.0 3.0 202 202
- 2.12 0 3 cbr 1000 ------- 1 0.0 3.0 202 202
r 2.128 0 3 cbr 1000 ------- 1 0.0 3.0 201 201
+ 2.13 0 3 cbr 1000 ------- 1 0.0 3.0 203 203
- 2.13 0 3 cbr 1000 ------- 1 0.0 3.0 203 203
r 2.138 0 3 cbr 1000 ------- 1 0.0 3.0 202 202
+ 2.14 0 3 cbr 1000 ------- 1 0.0 3.0 204 204
- 2.14 0 3 cbr 1000 ------- 1 0.0 3.0 204 204
r 2.148 0 3 cbr 1000 ------- 1 0.0 3.0 203 203
+ 2.15 0 3 cbr 1000 ------- 1 0.0 3.0 205 205
- 2.15 0 3 cbr 1000 ------- 1 0.0 3.0 205 205
r 2.158 0 3 cbr 1000 ------- 1 0.0 3.0 204 204
+ 2.16 0 3 cbr 1000 ------- 1 0.0 3.0 206 206
- 2.16 0 3 cbr 1000 ------- 1 0.0 3.0 206 206
r 2.168 0 3 cbr 1000 ------- 1 0.0 3.0 205 205
+ 2.17 0 3 cbr 1000 ------- 1 0.0 3.0 207 207
- 2.17 0 3 cbr 1000 ------- 1 0.0 3.0 207 207
r 2.178 0 3 cbr 1000 ------- 1 0.0 3.0 206 206
+ 2.18 0 3 cbr 1000 ------- 1 0.0 3.0 208 208
- 2.18 0 3 cbr 1000 ------- 1 0.0 3.0 208 208
r 2.188 0 3 cbr 1000 ------- 1 0.0 3.0 207 207
+ 2.19 0 3 cbr 1000 ------- 1 0.0 3.0 209 209
- 2.19 0 3 cbr 1000 ------- 1 0.0 3.0 209 209
r 2.198 0 3 cbr 1000 ------- 1 0.0 3.0 208 208
+ 2.2 0 3 cbr 1000 ------- 1 0.0 3.0 210 210
- 2.2 0 3 cbr 1000 ------- 1 0.0 3.0 210 210
r 2.208 0 3 cbr 1000 ------- 1 0.0 3.0 209 209
+ 2.21 0 3 cbr 1000 ------- 1 0.0 3.0 211 211
- 2.21 0 3 cbr 1000 ------- 1 0.0 3.0 211 211
r 2.218 0 3 cbr 1000 ------- 1 0.0 3.0 210 210
+ 2.22 0 3 cbr 1000 ------- 1 0.0 3.0 212 212
- 2.22 0 3 cbr 1000 ------- 1 0.0 3.0 212 212
r 2.228 0 3 cbr 1000 ------- 1 0.0 3.0 211 211
+ 2.23 0 3 cbr 1000 ------- 1 0.0 3.0 213 213
- 2.23 0 3 cbr 1000 ------- 1 0.0 3.0 213 213
r 2.238 0 3 cbr 1000 ------- 1 0.0 3.0 212 212
+ 2.24 0 3 cbr 1000 ------- 1 0.0 3.0 214 214
- 2.24 0 3 cbr 1000 ------- 1 0.0 3.0 214 214
r 2.248 0 3 cbr 1000 ------- 1 0.0 3.0 213 213
+ 2.25 0 3 cbr 1000 ------- 1 0.0 3.0 215 215
- 2.25 0 3 cbr 1000 ------- 1 0.0 3.0 215 215
r 2.258 0 3 cbr 1000 ------- 1 0.0 3.0 214 214
+ 2.26 0 3 cbr 1000 ------- 1 0.0 3.0 216 216
- 2.26 0 3 cbr 1000 ------- 1 0.0 3.0 216 216
r 2.268 0 3 cbr 1000 ------- 1 0.0 3.0 215 215
+ 2.27 0 3 cbr 1000 ------- 1 0.0 3.0 217 217
- 2.27 0 3 cbr 1000 ------- 1 0.0 3.0 217 217
r 2.278 0 3 cbr 1000 ------- 1 0.0 3.0 216 216
+ 2.28 0 3 cbr 1000 ------- 1 0.0 3.0 218 218
- 2.28 0 3 cbr 1000 ------- 1 0.0 3.0 218 218
r 2.288 0 3 cbr 1000 ------- 1 0.0 3.0 217 217
+ 2.29 0 3 cbr 1000 ------- 1 0.0 3.0 219 219
- 2.29 0 3 cbr 1000 ------- 1 0.0 3.0 219 219
r 2.298 0 3 cbr 1000 ------- 1 0.0 3.0 218 218
+ 2.3 0 3 cbr 1000 ------- 1 0.0 3.0 220 220
- 2.3 0 3 cbr 1000 ------- 1 0.0 3.0 220 220
r 2.308 0 3 cbr 1000 ------- 1 0.0 3.0 219 219