V -t * -v 1.0a5 -a 0
A -t * -n 1 -p 0 -o 0x7fffffff -c 30 -a 1
A -t * -h 1 -m 1073741823 -s 0
c -t * -i 1 -n Orange
n -t * -a 4 -s 4 -S UP -v circle -c black -i black
n -t * -a 0 -s 0 -S UP -v circle -c black -i black
n -t * -a 5 -s 5 -S UP -v circle -c black -i black
n -t * -a 1 -s 1 -S UP -v circle -c black -i black
n -t * -a 2 -s 2 -S UP -v circle -c black -i black
n -t * -a 3 -s 3 -S UP -v circle -c black -i black
l -t * -s 0 -d 1 -S UP -r 1000000 -D 0.01 -c black
l -t * -s 0 -d 2 -S UP -r 1000000 -D 0.01 -c black
l -t * -s 0 -d 3 -S UP -r 1000000 -D 0.01 -c black
l -t * -s 0 -d 4 -S UP -r 1000000 -D 0.01 -c black
l -t * -s 0 -d 5 -S UP -r 1000000 -D 0.01 -c black
l -t * -s 1 -d 2 -S UP -r 1000000 -D 0.01 -c black
l -t * -s 1 -d 3 -S UP -r 1000000 -D 0.01 -c black
l -t * -s 1 -d 4 -S UP -r 1000000 -D 0.01 -c black
l -t * -s 1 -d 5 -S UP -r 1000000 -D 0.01 -c black
l -t * -s 2 -d 3 -S UP -r 1000000 -D 0.01 -c black
l -t * -s 2 -d 4 -S UP -r 1000000 -D 0.01 -c black
l -t * -s 2 -d 5 -S UP -r 1000000 -D 0.01 -c black
l -t * -s 3 -d 4 -S UP -r 1000000 -D 0.01 -c black
l -t * -s 3 -d 5 -S UP -r 1000000 -D 0.01 -c black
l -t * -s 4 -d 5 -S UP -r 1000000 -D 0.01 -c black
+ -t 0.1 -s 0 -d 3 -p cbr -e 1000 -c 1 -i 0 -a 1 -x {0.0 3.0 0 ------- null}
- -t 0.1 -s 0 -d 3 -p cbr -e 1000 -c 1 -i 0 -a 1 -x {0.0 3.0 0 ------- null}
h -t 0.1 -s 0 -d 3 -p cbr -e 1000 -c 1 -i 0 -a 1 -x {0.0 3.0 -1 ------- null}
+ -t 0.11 -s 0 -d 3 -p cbr -e 1000 -c 1 -i 1 -a 1 -x {0.0 3.0 1 ------- null}
- -t 0.11 -s 0 -d 3 -p cbr -e 1000 -c 1 -i 1 -a 1 -x {0.0 3.0 1 ------- null}
h -t 0.11 -s 0 -d 3 -p cbr -e 1000 -c 1 -i 1 -a 1 -x {0.0 3.0 -1 ------- null}
r -t 0.118 -s 0 -d 3 -p cbr -e 1000 -c 1 -i 0 -a 1 -x {0.0 3.0 0 ------- null}
+ -t 0.12 -s 0 -d 3 -p cbr -e 1000 -c 1 -i 2 -a 1 -x {0.0 3.0 2 ------- null}
- -t 0.12 -s 0 -d 3 -p cbr -e 1000 -c 1 -i 2 -a 1 -x {0.0 3.0 2 ------- null}
h -t 0.12 -s 0 -d 3 -p cbr -e 1000 -c 1 -i 2 -a 1 -x {0.0 3.0 -1 ------- null}
r -t 0.128 -s 0 -d 3 -p cbr -e 1000 -c 1 -i 1 -a 1 -x {0.0 3.0 1 ------- null}
+ -t 0.13 -s 0 -d 3 -p cbr -e 1000 -c 1 -i 3 -a 1 -x {0.0 3.0 3 ------- null}
- -t 0.13 -s 0 -d 3 -p cbr -e 1000 -c 1 -i 3 -a 1 -x {0.0 3.0 3 ------- null}
h -t 0.13 -s 0 -d 3 -p cbr -e 1000 -c 1 -i 3 -a 1 -x {0.0 3.0 -1 ------- null}
r -t 0.138 -s 0 -d 3 -p cbr -e 1000 -c 1 -i 2 -a 1 -x {0.0 3.0 2 ------- null}
+ -t 0.14 -s 0 -d 3 -p cbr -e 1000 -c 1 -i 4 -a 1 -x {0.0 3.0 4 ------- null}
- -t 0.14 -s 0 -d 3 -p cbr -e 1000 -c 1 -i 4 -a 1 -x {0.0 3.0 4 ------- null}
h -t 0.14 -s 0 -d 3 -p cbr -e 1000 -c 1 -i 4 -a 1 -x {0.0 3.0 -1 ------- null}
r -t 0.148 -s 0 -d 3 -p cbr -e 1000 -c 1 -i 3 -a 1 -x {0.0 3.0 3 ------- null}
+ -t 0.15 -s 0 -d 3 -p cbr -e 1000 -c 1 -i 5 -a 1 -x {0.0 3.0 5 ------- null}
- -t 0.15 -s 0 -d 3 -p cbr -e 1000 -c 1 -i 5 -a 1 -x {0.0 3.0 5 ------- null}
h -t 0.15 -s 0 -d 3 -p cbr -e 1000 -c 1 -i 5 -a 1 -x {0.0 3.0 -1 ------- null}
r -t 0.158 -s 0 -d 3 -p cbr -e 1000 -c 1 -i 4 -a 1 -x {0.0 3.0 4 ------- null}
+ -t 0.16 -s 0 -d 3 -p cbr -e 1000 -c 1 -i 6 -a 1 -x {0.0 3.0 6 ------- null}
- -t 0.16 -s 0 -d 3 -p cbr -e 1000 -c 1 -i 6 -a 1 -x {0.0 3.0 6 ------- null}
h -t 0.16 -s 0 -d 3 -p cbr -e 1000 -c 1 -i 6 -a 1 -x {0.0 3.0 -1 ------- null}
r -t 0.168 -s 0 -d 3 -p cbr -e 1000 -c 1 -i 5 -a 1 -x {0.0 3.0 5 ------- null}
+ -t 0.17 -s 0 -d 3 -p cbr -e 1000 -c 1 -i 7 -a 1 -x {0.0 3.0 7 ------- null}
- -t 0.17 -s 0 -d 3 -p cbr -e 1000 -c 1 -i 7 -a 1 -x {0.0 3.0 7 ------- null}
h -t 0.17 -s 0 -d 3 -p cbr -e 1000 -c 1 -i 7 -a 1 -x {0.0 3.0 -1 ------- null}
r -t 0.178 -s 0 -d 3 -p cbr -e 1000 -c 1 -i 6 -a 1 -x {0.0 3.0 6 ------- null}
+ -t 0.18 -s 0 -d 3 -p cbr -e 1000 -c 1 -i 8 -a 1 -x {0.0 3.0 8 ------- null}
- -t 0.18 -s 0 -d 3 -p cbr -e 1000 -c 1 -i 8 -a 1 -x {0.0 3.0 8 ------- null}
h -t 0.18 -s 0 -d 3 -p cbr -e 1000 -c 1 -i 8 -a 1 -x {0.0 3.0 -1 ------- null}
r -t 0.188 -s 0 -d 3 -p cbr -e 1000 -c 1 -i 7 -a 1 -x {0.0 3.0 7 ------- null}
+ -t 0.19 -s 0 -d 3 -p cbr -e 1000 -c 1 -i 9 -a 1 -x {0.0 3.0 9 ------- null}
- -t 0.19 -s 0 -d 3 -p cbr -e 1000 -c 1 -i 9 -a 1 -x {0.0 3.0 9 ------- null}
h -t 0.19 -s 0 -d 3 -p cbr -e 1000 -c 1 -i 9 -a 1 -x {0.0 3.0 -1 ------- null}
r -t 0.198 -s 0 -d 3 -p cbr -e 1000 -c 1 -i 8 -a 1 -x {0.0 3.0 8 ------- null}
+ -t 0.2 -s 0 -d 3 -p cbr -e 1000 -c 1 -i 10 -a 1 -x {0.0 3.0 10 ------- null}
- -t 0.2 -s 0 -d 3 -p cbr -e 1000 -c 1 -i 10 -a 1 -x {0.0 3.0 10 ------- null}
h -t 0.2 -s 0 -d 3 -p cbr -e 1000 -c 1 -i 10 -a 1 -x {0.0 3.0 -1 ------- null}
r -t 0.208 -s 0 -d 3 -p cbr -e 1000 -c 1 -i 9 -a 1 -x {0.0 3.0 9 ------- null}
+ -t 0.21 -s 0 -d 3 -p cbr -e 1000 -c 1 -i 11 -a 1 -x {0.0 3.0 11 ------- null}
- -t 0.21 -s 0 -d 3 -p cbr -e 1000 -c 1 -i 11 -a 1 -x {0.0 3.0 11 ------- null}
h -t 0.21 -s 0 -d 3 -p cbr -e 1000 -c 1 -i 11 -a 1 -x {0.0 3.0 -1 ------- null}
r -t 0.218 -s 0 -d 3 -p cbr -e 1000 -c 1 -i 10 -a 1 -x {0.0 3.0 10 ------- null}
+ -t 0.22 -s 0 -d 3 -p cbr -e 1000 -c 1 -i 12 -a 1 -x {0.0 3.0 12 ------- null}
- -t 0.22 -s 0 -d 3 -p cbr -e 1000 -c 1 -i 12 -a 1 -x {0.0 3.0 12 ------- null}
h -t 0.22 -s 0 -d 3 -p cbr -e 1000 -c 1 -i 12 -a 1 -x {0.0 3.0 -1 ------- null}
r -t 0.228 -s 0 -d 3 -p cbr -e 1000 -c 1 -i 11 -a 1 -x {0.0 3.0 11 ------- null}
+ -t 0.23 -s 0 -d 3 -p cbr -e 1000 -c 1 -i 13 -a 1 -x {0.0 3.0 13 ------- null}
- -t 0.23 -s 0 -d 3 -p cbr -e 1000 -c 1 -i 13 -a 1 -x {0.0 3.0 13 ------- null}
h -t 0.23 -s 0 -d 3 -p cbr -e 1000 -c 1 -i 13 -a 1 -x {0.0 3.0 -1 ------- null}
r -t 0.238 -s 0 -d 3 -p cbr -e 1000 -c 1 -i 12 -a 1 -x {0.0 3.0 12 ------- null}
+ -t 0.24 -s 0 -d 3 -p cbr -e 1000 -c 1 -i 14 -a 1 -x {0.0 3.0 14 ------- null}
- -t 0.24 -s 0 -d 3 -p cbr -e 1000 -c 1 -i 14 -a 1 -x {0.0 3.0 14 ------- null}
h -t 0.24 -s 0 -d 3 -p cbr -e 1000 -c 1 -i 14 -a 1 -x {0.0 3.0 -1 ------- null}
r -t 0.248 -s 0 -d 3 -p cbr -e 1000 -c 1 -i 13 -a 1 -x {0.0 3.0 13 ------- null}
+ -t 0.25 -s 0 -d 3 -p cbr -e 1000 -c 1 -i 15 -a 1 -x {0.0 3.0 15 ------- null}
- -t 0.25 -s 0 -d 3 -p cbr -e 1000 -c 1 -i 15 -a 1 -x {0.0 3.0 15 ------- null}
h -t 0.25 -s 0 -d 3 -p cbr -e 1000 -c 1 -i 15 -a 1 -x {0.0 3.0 -1 ------- null}
r -t 0.258 -s 0 -d 3 -p cbr -e 1000 -c 1 -i 14 -a 1 -x {0.0 3.0 14 ------- null}
+ -t 0.26 -s 0 -d 3 -p cbr -e 1000 -c 1 -i 16 -a 1 -x {0.0 3.0 16 ------- null}
- -t 0.26 -s 0 -d 3 -p cbr -e 1000 -c 1 -i 16 -a 1 -x {0.0 3.0 16 ------- null}
h -t 0.26 -s 0 -d 3 -p cbr -e 1000 -c 1 -i 16 -a 1 -x {0.0 3.0 -1 ------- null}
r -t 0.268 -s 0 -d 3 -p cbr -e 1000 -c 1 -i 15 -a 1 -x {0.0 3.0 15 ------- null}
+ -t 0.27 -s 0 -d 3 -p cbr -e 1000 -c 1 -i 17 -a 1 -x {0.0 3.0 17 ------- null}
- -t 0.27 -s 0 -d 3 -p cbr -e 1000 -c 1 -i 17 -a 1 -x {0.0 3.0 17 ------- null}
h -t 0.27 -s 0 -d 3 -p cbr -e 1000 -c 1 -i 17 -a 1 -x {0.0 3.0 -1 ------- null}
r -t 0.278 -s 0 -d 3 -p cbr -e 1000 -c 1 -i 16 -a 1 -x {0.0 3.0 16 ------- null}
+ -t 0.28 -s 0 -d 3 -p cbr -e 1000 -c 1 -i 18 -a 1 -x {0.0 3.0 18 ------- null}
- -t 0.28 -s 0 -d 3 -p cbr -e 1000 -c 1 -i 18 -a 1 -x {0.0 3.0 18 ------- null}
h -t 0.28 -s 0 -d 3 -p cbr -e 1000 -c 1 -i 18 -a 1 -x {0.0 3.0 -1 ------- null}
r -t 0.288 -s 0 -d 3 -p cbr -e 1000 -c 1 -i 17 -a 1 -x {0.0 3.0 17 ------- null}
+ -t 0.29 -s 0 -d 3 -p cbr -e 1000 -c 1 -i 19 -a 1 -x {0.0 3.0 19 ------- null}
- -t 0.29 -s 0 -d 3 -p cbr -e 1000 -c 1 -i 19 -a 1 -x {0.0 3.0 19 ------- null}
h -t 0.29 -s 0 -d 3 -p cbr -e 1000 -c 1 -i 19 -a 1 -x {0.0 3.0 -1 ------- null}
r -t 0.298 -s 0 -d 3 -p cbr -e 1000 -c 1 -i 18 -a 1 -x {0.0 3.0 18 ------- null}
+ -t 0.3 -s 0 -d 3 -p cbr -e 1000 -c 1 -i 20 -a 1 -x {0.0 3.0 20 ------- null}
- -t 0.3 -s 0 -d 3 -p cbr -e 1000 -c 1 -i 20 -a 1 -x {0.0 3.0 20 ------- null}
h -t 0.3 -s 0 -d 3 -p cbr -e 1000 -c 1 -i 20 -a 1 -x {0.0 3.0 -1 ------- null}
r -t 0.308 -s 0 -d 3 -p cbr -e 1000 -c 1 -i 19 -a 1 -x {0.0 3.0 19 ------- null}
+ -t 0.31 -s 0 -d 3 -p cbr -e 1000 -c 1 -i 21 -a 1 -x {0.0 3.0 21 ------- null}
- -t 0.31 -s 0 -d 3 -p cbr -e 1000 -c 1 -i 21 -a 1 -x {0.0 3.0 21 ------- null}
h -t 0.31 -s 0 -d 3 -p cbr -e 1000 -c 1 -i 21 -a 1 -x {0.0 3.0 -1 ------- null}
r -t 0.318 -s 0 -d 3 -p cbr -e 1000 -c 1 -i 20 -a 1 -x {0.0 3.0 20 ------- null}
+ -t 0.32 -s 0 -d 3 -p cbr -e 1000 -c 1 -i 22 -a 1 -x {0.0 3.0 22 ------- null}
- -t 0.32 -s 0 -d 3 -p cbr -e 1000 -c 1 -i 22 -a 1 -x {0.0 3.0 22 ------- null}
h -t 0.32 -s 0 -d 3 -p cbr -e 1000 -c 1 -i 22 -a 1 -x {0.0 3.0 -1 ------- null}
r -t 0.328 -s 0 -d 3 -p cbr -e 1000 -c 1 -i 21 -a 1 -x {0.0 3.0 21 ------- null}
+ -t 0.33 -s 0 -d 3 -p cbr -e 1000 -c 1 -i 23 -a 1 -x {0.0 3.0 23 ------- null}
- -t 0.33 -s 0 -d 3 -p cbr -e 1000 -c 1 -i 23 -a 1 -x {0.0 3.0 23 ------- null}
h -t 0.33 -s 0 -d 3 -p cbr -e 1000 -c 1 -i 23 -a 1 -x {0.0 3.0 -1 ------- null}
r -t 0.338 -s 0 -d 3 -p cbr -e 1000 -c 1 -i 22 -a 1 -x {0.0 3.0 22 ------- null}
+ -t 0.34 -s 0 -d 3 -p cbr -e 1000 -c 1 -i 24 -a 1 -x {0.0 3.0 24 ------- null}
- -t 0.34 -s 0 -d 3 -p cbr -e 1000 -c 1 -i 24 -a 1 -x {0.0 3.0 24 ------- null}
h -t 0.34 -s 0 -d 3 -p cbr -e 1000 -c 1 -i 24 -a 1 -x {0.0 3.0 -1 ------- null}
r -t 0.348 -s 0 -d 3 -p cbr -e 1000 -c 1 -i 23 -a 1 -x {0.0 3.0 23 ------- null}
+ -t 0.35 -s 0 -d 3 -p cbr -e 1000 -c 1 -i 25 -a 1 -x {0.0 3.0 25 ------- null}
- -t 0.35 -s 0 -d 3 -p cbr -e 1000 -c 1 -i 25 -a 1 -x {0.0 3.0 25 ------- null}
h -t 0.35 -s 0 -d 3 -p cbr -e 1000 -c 1 -i 25 -a 1 -x {0.0 3.0 -1 ------- null}
r -t 0.358 -s 0 -d 3 -p cbr -e 1000 -c 1 -i 24 -a 1 -x {0.0 3.0 24 ------- null}
+ -t 0.36 -s 0 -d 3 -p cbr -e 1000 -c 1 -i 26 -a 1 -x {0.0 3.0 26 ------- null}
- -t 0.36 -s 0 -d 3 -p cbr -e 1000 -c 1 -i 26 -a 1 -x {0.0 3.0 26 ------- null}
h -t 0.36 -s 0 -d 3 -p cbr -e 1000 -c 1 -i 26 -a 1 -x {0.0 3.0 -1 ------- null}
r -t 0.368 -s 0 -d 3 -p cbr -e 1000 -c 1 -i 25 -a 1 -x {0.0 3.0 25 ------- null}
+ -t 0.37 -s 0 -d 3 -p cbr -e 1000 -c 1 -i 27 -a 1 -x {0.0 3.0 27 ------- null}
- -t 0.37 -s 0 -d 3 -p cbr -e 1000 -c 1 -i 27 -a 1 -x {0.0 3.0 27 ------- null}
h -t 0.37 -s 0 -d 3 -p cbr -e 1000 -c 1 -i 27 -a 1 -x {0.0 3.0 -1 ------- null}
r -t 0.378 -s 0 -d 3 -p cbr -e 1000 -c 1 -i 26 -a 1 -x {0.0 3.0 26 ------- null}
+ -t 0.38 -s 0 -d 3 -p cbr -e 1000 -c 1 -i 28 -a 1 -x {0.0 3.0 28 ------- null}
- -t 0.38 -s 0 -d 3 -p cbr -e 1000 -c 1 -i 28 -a 1 -x {0.0 3.0 28 ------- null}
h -t 0.38 -s 0 -d 3 -p cbr -e 1000 -c 1 -i 28 -a 1 -x {0.0 3.0 -1 ------- null}
r -t 0.388 -s 0 -d 3 -p cbr -e 1000 -c 1 -i 27 -a 1 -x {0.0 3.0 27 ------- null}
+ -t 0.39 -s 0 -d 3 -p cbr -e 1000 -c 1 -i 29 -a 1 -x {0.0 3.0 29 ------- null}
- -t 0.39 -s 0 -d 3 -p cbr -e 1000 -c 1 -i 29 -a 1 -x {0.0 3.0 29 ------- null}
h -t 0.39 -s 0 -d 3 -p cbr -e 1000 -c 1 -i 29 -a 1 -x {0.0 3.0 -1 ------- null}
r -t 0.398 -s 0 -d 3 -p cbr -e 1000 -c 1 -i 28 -a 1 -x {0.0 3.0 28 ------- null}
+ -t 0.4 -s 0 -d 3 -p cbr -e 1000 -c 1 -i 30 -a 1 -x {0.0 3.0 30 ------- null}
- -t 0.4 -s 0 -d 3 -p cbr -e 1000 -c 1 -i 30 -a 1 -x {0.0 3.0 30 ------- null}
h -t 0.4 -s 0 -d 3 -p cbr -e 1000 -c 1 -i 30 -a 1 -x {0.0 3.0 -1 ------- null}
r -t 0.408 -s 0 -d 3 -p cbr -e 1000 -c 1 -i 29 -a 1 -x {0.0 3.0 29 ------- null}
+ -t 0.41 -s 0 -d 3 -p cbr -e 1000 -c 1 -i 31 -a 1 -x {0.0 3.0 31 ------- null}
- -t 0.41 -s 0 -d 3 -p cbr -e 1000 -c 1 -i 31 -a 1 -x {0.0 3.0 31 ------- null}
h -t 0.41 -s 0 -d 3 -p cbr -e 1000 -c 1 -i 31 -a 1 -x {0.0 3.0 -1 ------- null}
r -t 0.418 -s 0 -d 3 -p cbr -e 1000 -c 1 -i 30 -a 1 -x {0.0 3.0 30 ------- null}
+ -t 0.42 -s 0 -d 3 -p cbr -e 1000 -c 1 -i 32 -a 1 -x {0.0 3.0 32 ------- null}
- -t 0.42 -s 0 -d 3 -p cbr -e 1000 -c 1 -i 32 -a 1 -x {0.0 3.0 32 ------- null}
h -t 0.42 -s 0 -d 3 -p cbr -e 1000 -c 1 -i 32 -a 1 -x {0.0 3.0 -1 ------- null}
r -t 0.428 -s 0 -d 3 -p cbr -e 1000 -c 1 -i 31 -a 1 -x {0.0 3.0 31 ------- null}
+ -t 0.43 -s 0 -d 3 -p cbr -e 1000 -c 1 -i 33 -a 1 -x {0.0 3.0 33 ------- null}
- -t 0.43 -s 0 -d 3 -p cbr -e 1000 -c 1 -i 33 -a 1 -x {0.0 3.0 33 ------- null}
h -t 0.43 -s 0 -d 3 -p cbr -e 1000 -c 1 -i 33 -a 1 -x {0.0 3.0 -1 ------- null}
r -t 0.438 -s 0 -d 3 -p cbr -e 1000 -c 1 -i 32 -a 1 -x {0.0 3.0 32 ------- null}
+ -t 0.44 -s 0 -d 3 -p cbr -e 1000 -c 1 -i 34 -a 1 -x {0.0 3.0 34 ------- null}
- -t 0.44 -s 0 -d 3 -p cbr -e 1000 -c 1 -i 34 -a 1 -x {0.0 3.0 34 ------- null}
h -t 0.44 -s 0 -d 3 -p cbr -e 1000 -c 1 -i 34 -a 1 -x {0.0 3.0 -1 ------- null}
r -t 0.448 -s 0 -d 3 -p cbr -e 1000 -c 1 -i 33 -a 1 -x {0.0 3.0 33 ------- null}
+ -t 0.45 -s 0 -d 3 -p cbr -e 1000 -c 1 -i 35 -a 1 -x {0.0 3.0 35 ------- null}
- -t 0.45 -s 0 -d 3 -p cbr -e 1000 -c 1 -i 35 -a 1 -x {0.0 3.0 35 ------- null}
h -t 0.45 -s 0 -d 3 -p cbr -e 1000 -c 1 -i 35 -a 1 -x {0.0 3.0 -1 ------- null}
r -t 0.458 -s 0 -d 3 -p cbr -e 1000 -c 1 -i 34 -a 1 -x {0.0 3.0 34 ------- null}
+ -t 0.46 -s 0 -d 3 -p cbr -e 1000 -c 1 -i 36 -a 1 -x {0.0 3.0 36 ------- null}
- -t 0.46 -s 0 -d 3 -p cbr -e 1000 -c 1 -i 36 -a 1 -x {0.0 3.0 36 ------- null}
h -t 0.46 -s 0 -d 3 -p cbr -e 1000 -c 1 -i 36 -a 1 -x {0.0 3.0 -1 ------- null}
r -t 0.468 -s 0 -d 3 -p cbr -e 1000 -c 1 -i 35 -a 1 -x {0.0 3.0 35 ------- null}
+ -t 0.47 -s 0 -d 3 -p cbr -e 1000 -c 1 -i 37 -a 1 -x {0.0 3.0 37 ------- null}
- -t 0.47 -s 0 -d 3 -p cbr -e 1000 -c 1 -i 37 -a 1 -x {0.0 3.0 37 ------- null}
h -t 0.47 -s 0 -d 3 -p cbr -e 1000 -c 1 -i 37 -a 1 -x {0.0 3.0 -1 ------- null}
r -t 0.478 -s 0 -d 3 -p cbr -e 1000 -c 1 -i 36 -a 1 -x {0.0 3.0 36 ------- null}
+ -t 0.48 -s 0 -d 3 -p cbr -e 1000 -c 1 -i 38 -a 1 -x {0.0 3.0 38 ------- null}
- -t 0.48 -s 0 -d 3 -p cbr -e 1000 -c 1 -i 38 -a 1 -x {0.0 3.0 38 ------- null}
h -t 0.48 -s 0 -d 3 -p cbr -e 1000 -c 1 -i 38 -a 1 -x {0.0 3.0 -1 ------- null}
r -t 0.488 -s 0 -d 3 -p cbr -e 1000 -c 1 -i 37 -a 1 -x {0.0 3.0 37 ------- null}
+ -t 0.49 -s 0 -d 3 -p cbr -e 1000 -c 1 -i 39 -a 1 -x {0.0 3.0 39 ------- null}
- -t 0.49 -s 0 -d 3 -p cbr -e 1000 -c 1 -i 39 -a 1 -x {0.0 3.0 39 ------- null}
h -t 0.49 -s 0 -d 3 -p cbr -e 1000 -c 1 -i 39 -a 1 -x {0.0 3.0 -1 ------- null}
r -t 0.498 -s 0 -d 3 -p cbr -e 1000 -c 1 -i 38 -a 1 -x {0.0 3.0 38 ------- null}
+ -t 0.5 -s 0 -d 3 -p cbr -e 1000 -c 1 -i 40 -a 1 -x {0.0 3.0 40 ------- null}
- -t 0.5 -s 0 -d 3 -p cbr -e 1000 -c 1 -i 40 -a 1 -x {0.0 3.0 40 ------- null}
h -t 0.5 -s 0 -d 3 -p cbr -e 1000 -c 1 -i 40 -a 1 -x {0.0 3.0 -1 ------- null}
r -t 0.508 -s 0 -d 3 -p cbr -e 1000 -c 1 -i 39 -a 1 -x {0.0 3.0 39 ------- null}
+ -t 0.51 -s 0 -d 3 -p cbr -e 1000 -c 1 -i 41 -a 1 -x {0.0 3.0 41 ------- null}
- -t 0.51 -s 0 -d 3 -p cbr -e 1000 -c 1 -i 41 -a 1 -x {0.0 3.0 41 ------- null}
h -t 0.51 -s 0 -d 3 -p cbr -e 1000 -c 1 -i 41 -a 1 -x {0.0 3.0 -1 ------- null}
r -t 0.518 -s 0 -d 3 -p cbr -e 1000 -c 1 -i 40 -a 1 -x {0.0 3.0 40 ------- null}
+ -t 0.52 -s 0 -d 3 -p cbr -e 1000 -c 1 -i 42 -a 1 -x {0.0 3.0 42 ------- null}
- -t 0.52 -s 0 -d 3 -p cbr -e 1000 -c 1 -i 42 -a 1 -x {0.0 3.0 42 ------- null}
h -t 0.52 -s 0 -d 3 -p cbr -e 1000 -c 1 -i 42 -a 1 -x {0.0 3.0 -1 ------- null}
r -t 0.528 -s 0 -d 3 -p cbr -e 1000 -c 1 -i 41 -a 1 -x {0.0 3.0 41 ------- null}
+ -t 0.53 -s 0 -d 3 -p cbr -e 1000 -c 1 -i 43 -a 1 -x {0.0 3.0 43 ------- null}
- -t 0.53 -s 0 -d 3 -p cbr -e 1000 -c 1 -i 43 -a 1 -x {0.0 3.0 43 ------- null}
h -t 0.53 -s 0 -d 3 -p cbr -e 1000 -c 1 -i 43 -a 1 -x {0.0 3.0 -1 ------- null}
r -t 0.538 -s 0 -d 3 -p cbr -e 1000 -c 1 -i 42 -a 1 -x {0.0 3.0 42 ------- null}
+ -t 0.54 -s 0 -d 3 -p cbr -e 1000 -c 1 -i 44 -a 1 -x {0.0 3.0 44 ------- null}
- -t 0.54 -s 0 -d 3 -p cbr -e 1000 -c 1 -i 44 -a 1 -x {0.0 3.0 44 ------- null}
h -t 0.54 -s 0 -d 3 -p cbr -e 1000 -c 1 -i 44 -a 1 -x {0.0 3.0 -1 ------- null}
r -t 0.548 -s 0 -d 3 -p cbr -e 1000 -c 1 -i 43 -a 1 -x {0.0 3.0 43 ------- null}
+ -t 0.55 -s 0 -d 3 -p cbr -e 1000 -c 1 -i 45 -a 1 -x {0.0 3.0 45 ------- null}
- -t 0.55 -s 0 -d 3 -p cbr -e 1000 -c 1 -i 45 -a 1 -x {0.0 3.0 45 ------- null}
h -t 0.55 -s 0 -d 3 -p cbr -e 1000 -c 1 -i 45 -a 1 -x {0.0 3.0 -1 ------- null}
r -t 0.558 -s 0 -d 3 -p cbr -e 1000 -c 1 -i 44 -a 1 -x {0.0 3.0 44 ------- null}
+ -t 0.56 -s 0 -d 3 -p cbr -e 1000 -c 1 -i 46 -a 1 -x {0.0 3.0 46 ------- null}
- -t 0.56 -s 0 -d 3 -p cbr -e 1000 -c 1 -i 46 -a 1 -x {0.0 3.0 46 ------- null}
h -t 0.56 -s 0 -d 3 -p cbr -e 1000 -c 1 -i 46 -a 1 -x {0.0 3.0 -1 ------- null}
r -t 0.568 -s 0 -d 3 -p cbr -e 1000 -c 1 -i 45 -a 1 -x {0.0 3.0 45 ------- null}
+ -t 0.57 -s 0 -d 3 -p cbr -e 1000 -c 1 -i 47 -a 1 -x {0.0 3.0 47 ------- null}
- -t 0.57 -s 0 -d 3 -p cbr -e 1000 -c 1 -i 47 -a 1 -x {0.0 3.0 47 ------- null}
h -t 0.57 -s 0 -d 3 -p cbr -e 1000 -c 1 -i 47 -a 1 -x {0.0 3.0 -1 ------- null}
r -t 0.578 -s 0 -d 3 -p cbr -e 1000 -c 1 -i 46 -a 1 -x {0.0 3.0 46 ------- null}
+ -t 0.58 -s 0 -d 3 -p cbr -e 1000 -c 1 -i 48 -a 1 -x {0.0 3.0 48 ------- null}
- -t 0.58 -s 0 -d 3 -p cbr -e 1000 -c 1 -i 48 -a 1 -x {0.0 3.0 48 ------- null}
h -t 0.58 -s 0 -d 3 -p cbr -e 1000 -c 1 -i 48 -a 1 -x {0.0 3.0 -1 ------- null}
r -t 0.588 -s 0 -d 3 -p cbr -e 1000 -c 1 -i 47 -a 1 -x {0.0 3.0 47 ------- null}
+ -t 0.59 -s 0 -d 3 -p cbr -e 1000 -c 1 -i 49 -a 1 -x {0.0 3.0 49 ------- null}
- -t 0.59 -s 0 -d 3 -p cbr -e 1000 -c 1 -i 49 -a 1 -x {0.0 3.0 49 ------- null}
h -t 0.59 -s 0 -d 3 -p cbr -e 1000 -c 1 -i 49 -a 1 -x {0.0 3.0 -1 ------- null}
r -t 0.598 -s 0 -d 3 -p cbr -e 1000 -c 1 -i 48 -a 1 -x {0.0 3.0 48 ------- null}
+ -t 0.6 -s 0 -d 3 -p cbr -e 1000 -c 1 -i 50 -a 1 -x {0.0 3.0 50 ------- null}
- -t 0.6 -s 0 -d 3 -p cbr -e 1000 -c 1 -i 50 -a 1 -x {0.0 3.0 50 ------- null}
h -t 0.6 -s 0 -d 3 -p cbr -e 1000 -c 1 -i 50 -a 1 -x {0.0 3.0 -1 ------- null}
r -t 0.608 -s 0 -d 3 -p cbr -e 1000 -c 1 -i 49 -a 1 -x {0.0 3.0 49 ------- null}
+ -t 0.61 -s 0 -d 3 -p cbr -e 1000 -c 1 -i 51 -a 1 -x {0.0 3.0 51 ------- null}
- -t 0.61 -s 0 -d 3 -p cbr -e 1000 -c 1 -i 51 -a 1 -x {0.0 3.0 51 ------- null}
h -t 0.61 -s 0 -d 3 -p cbr -e 1000 -c 1 -i 51 -a 1 -x {0.0 3.0 -1 ------- null}
r -t 0.618 -s 0 -d 3 -p cbr -e 1000 -c 1 -i 50 -a 1 -x {0.0 3.0 50 ------- null}
+ -t 0.62 -s 0 -d 3 -p cbr -e 1000 -c 1 -i 52 -a 1 -x {0.0 3.0 52 ------- null}
- -t 0.62 -s 0 -d 3 -p cbr -e 1000 -c 1 -i 52 -a 1 -x {0.0 3.0 52 ------- null}
h -t 0.62 -s 0 -d 3 -p cbr -e 1000 -c 1 -i 52 -a 1 -x {0.0 3.0 -1 ------- null}
r -t 0.628 -s 0 -d 3 -p cbr -e 1000 -c 1 -i 51 -a 1 -x {0.0 3.0 51 ------- null}
+ -t 0.63 -s 0 -d 3 -p cbr -e 1000 -c 1 -i 53 -a 1 -x {0.0 3.0 53 ------- null}
- -t 0.63 -s 0 -d 3 -p cbr -e 1000 -c 1 -i 53 -a 1 -x {0.0 3.0 53 ------- null}
h -t 0.63 -s 0 -d 3 -p cbr -e 1000 -c 1 -i 53 -a 1 -x {0.0 3.0 -1 ------- null}
r -t 0.638 -s 0 -d 3 -p cbr -e 1000 -c 1 -i 52 -a 1 -x {0.0 3.0 52 ------- null}
+ -t 0.64 -s 0 -d 3 -p cbr -e 1000 -c 1 -i 54 -a 1 -x {0.0 3.0 54 ------- null}
- -t 0.64 -s 0 -d 3 -p cbr -e 1000 -c 1 -i 54 -a 1 -x {0.0 3.0 54 ------- null}
h -t 0.64 -s 0 -d 3 -p cbr -e 1000 -c 1 -i 54 -a 1 -x {0.0 3.0 -1 ------- null}
r -t 0.648 -s 0 -d 3 -p cbr -e 1000 -c 1 -i 53 -a 1 -x {0.0 3.0 53 ------- null}
+ -t 0.65 -s 0 -d 3 -p cbr -e 1000 -c 1 -i 55 -a 1 -x {0.0 3.0 55 ------- null}
- -t 0.65 -s 0 -d 3 -p cbr -e 1000 -c 1 -i 55 -a 1 -x {0.0 3.0 55 ------- null}
h -t 0.65 -s 0 -d 3 -p cbr -e 1000 -c 1 -i 55 -a 1 -x {0.0 3.0 -1 ------- null}
r -t 0.658 -s 0 -d 3 -p cbr -e 1000 -c 1 -i 54 -a 1 -x {0.0 3.0 54 ------- null}
+ -t 0.66 -s 0 -d 3 -p cbr -e 1000 -c 1 -i 56 -a 1 -x {0.0 3.0 56 ------- null}
- -t 0.66 -s 0 -d 3 -p cbr -e 1000 -c 1 -i 56 -a 1 -x {0.0 3.0 56 ------- null}
h -t 0.66 -s 0 -d 3 -p cbr -e 1000 -c 1 -i 56 -a 1 -x {0.0 3.0 -1 ------- null}
r -t 0.668 -s 0 -d 3 -p cbr -e 1000 -c 1 -i 55 -a 1 -x {0.0 3.0 55 ------- null}
+ -t 0.67 -s 0 -d 3 -p cbr -e 1000 -c 1 -i 57 -a 1 -x {0.0 3.0 57 ------- null}
- -t 0.67 -s 0 -d 3 -p cbr -e 1000 -c 1 -i 57 -a 1 -x {0.0 3.0 57 ------- null}
h -t 0.67 -s 0 -d 3 -p cbr -e 1000 -c 1 -i 57 -a 1 -x {0.0 3.0 -1 ------- null}
r -t 0.678 -s 0 -d 3 -p cbr -e 1000 -c 1 -i 56 -a 1 -x {0.0 3.0 56 ------- null}
+ -t 0.68 -s 0 -d 3 -p cbr -e 1000 -c 1 -i 58 -a 1 -x {0.0 3.0 58 ------- null}
- -t 0.68 -s 0 -d 3 -p cbr -e 1000 -c 1 -i 58 -a 1 -x {0.0 3.0 58 ------- null}
h -t 0.68 -s 0 -d 3 -p cbr -e 1000 -c 1 -i 58 -a 1 -x {0.0 3.0 -1 ------- null}
r -t 0.688000000000001 -s 0 -d 3 -p cbr -e 1000 -c 1 -i 57 -a 1 -x {0.0 3.0 57 ------- null}
+ -t 0.690000000000001 -s 0 -d 3 -p cbr -e 1000 -c 1 -i 59 -a 1 -x {0.0 3.0 59 ------- null}
- -t 0.690000000000001 -s 0 -d 3 -p cbr -e 1000 -c 1 -i 59 -a 1 -x {0.0 3.0 59 ------- null}
h -t 0.690000000000001 -s 0 -d 3 -p cbr -e 1000 -c 1 -i 59 -a 1 -x {0.0 3.0 -1 ------- null}
r -t 0.698000000000001 -s 0 -d 3 -p cbr -e 1000 -c 1 -i 58 -a 1 -x {0.0 3.0 58 ------- null}
+ -t 0.700000000000001 -s 0 -d 3 -p cbr -e 1000 -c 1 -i 60 -a 1 -x {0.0 3.0 60 ------- null}
- -t 0.700000000000001 -s 0 -d 3 -p cbr -e 1000 -c 1 -i 60 -a 1 -x {0.0 3.0 60 ------- null}
h -t 0.700000000000001 -s 0 -d 3 -p cbr -e 1000 -c 1 -i 60 -a 1 -x {0.0 3.0 -1 ------- null}
r -t 0.708000000000001 -s 0 -d 3 -p cbr -e 1000 -c 1 -i 59 -a 1 -x {0.0 3.0 59 ------- null}
+ -t 0.710000000000001 -s 0 -d 3 -p cbr -e 1000 -c 1 -i 61 -a 1 -x {0.0 3.0 61 ------- null}
- -t 0.710000000000001 -s 0 -d 3 -p cbr -e 1000 -c 1 -i 61 -a 1 -x {0.0 3.0 61 ------- null}
h -t 0.710000000000001 -s 0 -d 3 -p cbr -e 1000 -c 1 -i 61 -a 1 -x {0.0 3.0 -1 ------- null}
r -t 0.718000000000001 -s 0 -d 3 -p cbr -e 1000 -c 1 -i 60 -a 1 -x {0.0 3.0 60 ------- null}
+ -t 0.720000000000001 -s 0 -d 3 -p cbr -e 1000 -c 1 -i 62 -a 1 -x {0.0 3.0 62 ------- null}
- -t 0.720000000000001 -s 0 -d 3 -p cbr -e 1000 -c 1 -i 62 -a 1 -x {0.0 3.0 62 ------- null}
h -t 0.720000000000001 -s 0 -d 3 -p cbr -e 1000 -c 1 -i 62 -a 1 -x {0.0 3.0 -1 ------- null}
r -t 0.728000000000001 -s 0 -d 3 -p cbr -e 1000 -c 1 -i 61 -a 1 -x {0.0 3.0 61 ------- null}
+ -t 0.730000000000001 -s 0 -d 3 -p cbr -e 1000 -c 1 -i 63 -a 1 -x {0.0 3.0 63 ------- null}
- -t 0.730000000000001 -s 0 -d 3 -p cbr -e 1000 -c 1 -i 63 -a 1 -x {0.0 3.0 63 ------- null}
h -t 0.730000000000001 -s 0 -d 3 -p cbr -e 1000 -c 1 -i 63 -a 1 -x {0.0 3.0 -1 ------- null}
r -t 0.738000000000001 -s 0 -d 3 -p cbr -e 1000 -c 1 -i 62 -a 1 -x {0.0 3.0 62 ------- null}
+ -t 0.740000000000001 -s 0 -d 3 -p cbr -e 1000 -c 1 -i 64 -a 1 -x {0.0 3.0 64 ------- null}
- -t 0.740000000000001 -s 0 -d 3 -p cbr -e 1000 -c 1 -i 64 -a 1 -x {0.0 3.0 64 ------- null}
h -t 0.740000000000001 -s 0 -d 3 -p cbr -e 1000 -c 1 -i 64 -a 1 -x {0.0 3.0 -1 ------- null}
r -t 0.748000000000001 -s 0 -d 3 -p cbr -e 1000 -c 1 -i 63 -a 1 -x {0.0 3.0 63 ------- null}
+ -t 0.750000000000001 -s 0 -d 3 -p cbr -e 1000 -c 1 -i 65 -a 1 -x {0.0 3.0 65 ------- null}
- -t 0.750000000000001 -s 0 -d 3 -p cbr -e 1000 -c 1 -i 65 -a 1 -x {0.0 3.0 65 ------- null}
h -t 0.750000000000001 -s 0 -d 3 -p cbr -e 1000 -c 1 -i 65 -a 1 -x {0.0 3.0 -1 ------- null}
r -t 0.758000000000001 -s 0 -d 3 -p cbr -e 1000 -c 1 -i 64 -a 1 -x {0.0 3.0 64 ------- null}
+ -t 0.760000000000001 -s 0 -d 3 -p cbr -e 1000 -c 1 -i 66 -a 1 -x {0.0 3.0 66 ------- null}
- -t 0.760000000000001 -s 0 -d 3 -p cbr -e 1000 -c 1 -i 66 -a 1 -x {0.0 3.0 66 ------- null}
h -t 0.760000000000001 -s 0 -d 3 -p cbr -e 1000 -c 1 -i 66 -a 1 -x {0.0 3.0 -1 ------- null}
r -t 0.768000000000001 -s 0 -d 3 -p cbr -e 1000 -c 1 -i 65 -a 1 -x {0.0 3.0 65 ------- null}
+ -t 0.770000000000001 -s 0 -d 3 -p cbr -e 1000 -c 1 -i 67 -a 1 -x {0.0 3.0 67 ------- null}
- -t 0.770000000000001 -s 0 -d 3 -p cbr -e 1000 -c 1 -i 67 -a 1 -x {0.0 3.0 67 ------- null}
h -t 0.770000000000001 -s 0 -d 3 -p cbr -e 1000 -c 1 -i 67 -a 1 -x {0.0 3.0 -1 ------- null}
r -t 0.778000000000001 -s 0 -d 3 -p cbr -e 1000 -c 1 -i 66 -a 1 -x {0.0 3.0 66 ------- null}
+ -t 0.780000000000001 -s 0 -d 3 -p cbr -e 1000 -c 1 -i 68 -a 1 -x {0.0 3.0 68 ------- null}
- -t 0.780000000000001 -s 0 -d 3 -p cbr -e 1000 -c 1 -i 68 -a 1 -x {0.0 3.0 68 ------- null}
h -t 0.780000000000001 -s 0 -d 3 -p cbr -e 1000 -c 1 -i 68 -a 1 -x {0.0 3.0 -1 ------- null}
r -t 0.788000000000001 -s 0 -d 3 -p cbr -e 1000 -c 1 -i 67 -a 1 -x {0.0 3.0 67 ------- null}
+ -t 0.790000000000001 -s 0 -d 3 -p cbr -e 1000 -c 1 -i 69 -a 1 -x {0.0 3.0 69 ------- null}
- -t 0.790000000000001 -s 0 -d 3 -p cbr -e 1000 -c 1 -i 69 -a 1 -x {0.0 3.0 69 ------- null}
h -t 0.790000000000001 -s 0 -d 3 -p cbr -e 1000 -c 1 -i 69 -a 1 -x {0.0 3.0 -1 ------- null}
r -t 0.798000000000001 -s 0 -d 3 -p cbr -e 1000 -c 1 -i 68 -a 1 -x {0.0 3.0 68 ------- null}
+ -t 0.800000000000001 -s 0 -d 3 -p cbr -e 1000 -c 1 -i 70 -a 1 -x {0.0 3.0 70 ------- null}
- -t 0.800000000000001 -s 0 -d 3 -p cbr -e 1000 -c 1 -i 70 -a 1 -x {0.0 3.0 70 ------- null}
h -t 0.800000000000001 -s 0 -d 3 -p cbr -e 1000 -c 1 -i 70 -a 1 -x {0.0 3.0 -1 ------- null}
r -t 0.808000000000001 -s 0 -d 3 -p cbr -e 1000 -c 1 -i 69 -a 1 -x {0.0 3.0 69 ------- null}
+ -t 0.810000000000001 -s 0 -d 3 -p cbr -e 1000 -c 1 -i 71 -a 1 -x {0.0 3.0 71 ------- null}
- -t 0.810000000000001 -s 0 -d 3 -p cbr -e 1000 -c 1 -i 71 -a 1 -x {0.0 3.0 71 ------- null}
h -t 0.810000000000001 -s 0 -d 3 -p cbr -e 1000 -c 1 -i 71 -a 1 -x {0.0 3.0 -1 ------- null}
r -t 0.818000000000001 -s 0 -d 3 -p cbr -e 1000 -c 1 -i 70 -a 1 -x {0.0 3.0 70 ------- null}
+ -t 0.820000000000001 -s 0 -d 3 -p cbr -e 1000 -c 1 -i 72 -a 1 -x {0.0 3.0 72 ------- null}
- -t 0.820000000000001 -s 0 -d 3 -p cbr -e 1000 -c 1 -i 72 -a 1 -x {0.0 3.0 72 ------- null}
h -t 0.820000000000001 -s 0 -d 3 -p cbr -e 1000 -c 1 -i 72 -a 1 -x {0.0 3.0 -1 ------- null}
r -t 0.828000000000001 -s 0 -d 3 -p cbr -e 1000 -c 1 -i 71 -a 1 -x {0.0 3.0 71 ------- null}
+ -t 0.830000000000001 -s 0 -d 3 -p cbr -e 1000 -c 1 -i 73 -a 1 -x {0.0 3.0 73 ------- null}
- -t 0.830000000000001 -s 0 -d 3 -p cbr -e 1000 -c 1 -i 73 -a 1 -x {0.0 3.0 73 ------- null}
h -t 0.830000000000001 -s 0 -d 3 -p cbr -e 1000 -c 1 -i 73 -a 1 -x {0.0 3.0 -1 ------- null}
r -t 0.838000000000001 -s 0 -d 3 -p cbr -e 1000 -c 1 -i 72 -a 1 -x {0.0 3.0 72 ------- null}
+ -t 0.840000000000001 -s 0 -d 3 -p cbr -e 1000 -c 1 -i 74 -a 1 -x {0.0 3.0 74 ------- null}
- -t 0.840000000000001 -s 0 -d 3 -p cbr -e 1000 -c 1 -i 74 -a 1 -x {0.0 3.0 74 ------- null}
h -t 0.840000000000001 -s 0 -d 3 -p cbr -e 1000 -c 1 -i 74 -a 1 -x {0.0 3.0 -1 ------- null}
r -t 0.848000000000001 -s 0 -d 3 -p cbr -e 1000 -c 1 -i 73 -a 1 -x {0.0 3.0 73 ------- null}
+ -t 0.850000000000001 -s 0 -d 3 -p cbr -e 1000 -c 1 -i 75 -a 1 -x {0.0 3.0 75 ------- null}
- -t 0.850000000000001 -s 0 -d 3 -p cbr -e 1000 -c 1 -i 75 -a 1 -x {0.0 3.0 75 ------- null}
h -t 0.850000000000001 -s 0 -d 3 -p cbr -e 1000 -c 1 -i 75 -a 1 -x {0.0 3.0 -1 ------- null}
r -t 0.858000000000001 -s 0 -d 3 -p cbr -e 1000 -c 1 -i 74 -a 1 -x {0.0 3.0 74 ------- null}
+ -t 0.860000000000001 -s 0 -d 3 -p cbr -e 1000 -c 1 -i 76 -a 1 -x {0.0 3.0 76 ------- null}
- -t 0.860000000000001 -s 0 -d 3 -p cbr -e 1000 -c 1 -i 76 -a 1 -x {0.0 3.0 76 ------- null}
h -t 0.860000000000001 -s 0 -d 3 -p cbr -e 1000 -c 1 -i 76 -a 1 -x {0.0 3.0 -1 ------- null}
r -t 0.868000000000001 -s 0 -d 3 -p cbr -e 1000 -c 1 -i 75 -a 1 -x {0.0 3.0 75 ------- null}
+ -t 0.870000000000001 -s 0 -d 3 -p cbr -e 1000 -c 1 -i 77 -a 1 -x {0.0 3.0 77 ------- null}
- -t 0.870000000000001 -s 0 -d 3 -p cbr -e 1000 -c 1 -i 77 -a 1 -x {0.0 3.0 77 ------- null}
h -t 0.870000000000001 -s 0 -d 3 -p cbr -e 1000 -c 1 -i 77 -a 1 -x {0.0 3.0 -1 ------- null}
r -t 0.878000000000001 -s 0 -d 3 -p cbr -e 1000 -c 1 -i 76 -a 1 -x {0.0 3.0 76 ------- null}
+ -t 0.880000000000001 -s 0 -d 3 -p cbr -e 1000 -c 1 -i 78 -a 1 -x {0.0 3.0 78 ------- null}
- -t 0.880000000000001 -s 0 -d 3 -p cbr -e 1000 -c 1 -i 78 -a 1 -x {0.0 3.0 78 ------- null}
h -t 0.880000000000001 -s 0 -d 3 -p cbr -e 1000 -c 1 -i 78 -a 1 -x {0.0 3.0 -1 ------- null}
r -t 0.888000000000001 -s 0 -d 3 -p cbr -e 1000 -c 1 -i 77 -a 1 -x {0.0 3.0 77 ------- null}
+ -t 0.890000000000001 -s 0 -d 3 -p cbr -e 1000 -c 1 -i 79 -a 1 -x {0.0 3.0 79 ------- null}
- -t 0.890000000000001 -s 0 -d 3 -p cbr -e 1000 -c 1 -i 79 -a 1 -x {0.0 3.0 79 ------- null}
h -t 0.890000000000001 -s 0 -d 3 -p cbr -e 1000 -c 1 -i 79 -a 1 -x {0.0 3.0 -1 ------- null}
r -t 0.898000000000001 -s 0 -d 3 -p cbr -e 1000 -c 1 -i 78 -a 1 -x {0.0 3.0 78 ------- null}
+ -t 0.900000000000001 -s 0 -d 3 -p cbr -e 1000 -c 1 -i 80 -a 1 -x {0.0 3.0 80 ------- null}
- -t 0.900000000000001 -s 0 -d 3 -p cbr -e 1000 -c 1 -i 80 -a 1 -x {0.0 3.0 80 ------- null}
h -t 0.900000000000001 -s 0 -d 3 -p cbr -e 1000 -c 1 -i 80 -a 1 -x {0.0 3.0 -1 ------- null}
r -t 0.908000000000001 -s 0 -d 3 -p cbr -e 1000 -c 1 -i 79 -a 1 -x {0.0 3.0 79 ------- null}
+ -t 0.910000000000001 -s 0 -d 3 -p cbr -e 1000 -c 1 -i 81 -a 1 -x {0.0 3.0 81 ------- null}
- -t 0.910000000000001 -s 0 -d 3 -p cbr -e 1000 -c 1 -i 81 -a 1 -x {0.0 3.0 81 ------- null}
h -t 0.910000000000001 -s 0 -d 3 -p cbr -e 1000 -c 1 -i 81 -a 1 -x {0.0 3.0 -1 ------- null}
r -t 0.918000000000001 -s 0 -d 3 -p cbr -e 1000 -c 1 -i 80 -a 1 -x {0.0 3.0 80 ------- null}
+ -t 0.920000000000001 -s 0 -d 3 -p cbr -e 1000 -c 1 -i 82 -a 1 -x {0.0 3.0 82 ------- null}
- -t 0.920000000000001 -s 0 -d 3 -p cbr -e 1000 -c 1 -i 82 -a 1 -x {0.0 3.0 82 ------- null}
h -t 0.920000000000001 -s 0 -d 3 -p cbr -e 1000 -c 1 -i 82 -a 1 -x {0.0 3.0 -1 ------- null}
r -t 0.928000000000001 -s 0 -d 3 -p cbr -e 1000 -c 1 -i 81 -a 1 -x {0.0 3.0 81 ------- null}
+ -t 0.930000000000001 -s 0 -d 3 -p cbr -e 1000 -c 1 -i 83 -a 1 -x {0.0 3.0 83 ------- null}
- -t 0.930000000000001 -s 0 -d 3 -p cbr -e 1000 -c 1 -i 83 -a 1 -x {0.0 3.0 83 ------- null}
h -t 0.930000000000001 -s 0 -d 3 -p cbr -e 1000 -c 1 -i 83 -a 1 -x {0.0 3.0 -1 ------- null}
r -t 0.938000000000001 -s 0 -d 3 -p cbr -e 1000 -c 1 -i 82 -a 1 -x {0.0 3.0 82 ------- null}
+ -t 0.940000000000001 -s 0 -d 3 -p cbr -e 1000 -c 1 -i 84 -a 1 -x {0.0 3.0 84 ------- null}
- -t 0.940000000000001 -s 0 -d 3 -p cbr -e 1000 -c 1 -i 84 -a 1 -x {0.0 3.0 84 ------- null}
h -t 0.940000000000001 -s 0 -d 3 -p cbr -e 1000 -c 1 -i 84 -a 1 -x {0.0 3.0 -1 ------- null}
r -t 0.948000000000001 -s 0 -d 3 -p cbr -e 1000 -c 1 -i 83 -a 1 -x {0.0 3.0 83 ------- null}
+ -t 0.950000000000001 -s 0 -d 3 -p cbr -e 1000 -c 1 -i 85 -a 1 -x {0.0 3.0 85 ------- null}
- -t 0.950000000000001 -s 0 -d 3 -p cbr -e 1000 -c 1 -i 85 -a 1 -x {0.0 3.0 85 ------- null}
h -t 0.950000000000001 -s 0 -d 3 -p cbr -e 1000 -c 1 -i 85 -a 1 -x {0.0 3.0 -1 ------- null}