+ 0.1 0 1 tcp 40 ------- 1 0.0 3.0 0 0
- 0.1 0 1 tcp 40 ------- 1 0.0 3.0 0 0
r 0.11532 0 1 tcp 40 ------- 1 0.0 3.0 0 0
+ 0.11532 1 2 tcp 40 ------- 1 0.0 3.0 0 0
- 0.11532 1 2 tcp 40 ------- 1 0.0 3.0 0 0
r 0.13064 1 2 tcp 40 ------- 1 0.0 3.0 0 0
+ 0.13064 2 3 tcp 40 ------- 1 0.0 3.0 0 0
- 0.13064 2 3 tcp 40 ------- 1 0.0 3.0 0 0
r 0.14596 2 3 tcp 40 ------- 1 0.0 3.0 0 0
+ 0.14596 3 2 ack 40 ------- 1 3.0 0.0 0 1
- 0.14596 3 2 ack 40 ------- 1 3.0 0.0 0 1
r 0.16128 3 2 ack 40 ------- 1 3.0 0.0 0 1
+ 0.16128 2 1 ack 40 ------- 1 3.0 0.0 0 1
- 0.16128 2 1 ack 40 ------- 1 3.0 0.0 0 1
r 0.1766 2 1 ack 40 ------- 1 3.0 0.0 0 1
+ 0.1766 1 0 ack 40 ------- 1 3.0 0.0 0 1
- 0.1766 1 0 ack 40 ------- 1 3.0 0.0 0 1
r 0.19192 1 0 ack 40 ------- 1 3.0 0.0 0 1
+ 0.19192 0 1 tcp 1040 ------- 1 0.0 3.0 1 2
- 0.19192 0 1 tcp 1040 ------- 1 0.0 3.0 1 2
+ 0.19192 0 1 tcp 1040 ------- 1 0.0 3.0 2 3
- 0.20024 0 1 tcp 1040 ------- 1 0.0 3.0 2 3
r 0.21524 0 1 tcp 1040 ------- 1 0.0 3.0 1 2
+ 0.21524 1 2 tcp 1040 ------- 1 0.0 3.0 1 2
- 0.21524 1 2 tcp 1040 ------- 1 0.0 3.0 1 2
r 0.22356 0 1 tcp 1040 ------- 1 0.0 3.0 2 3
+ 0.22356 1 2 tcp 1040 ------- 1 0.0 3.0 2 3
- 0.22356 1 2 tcp 1040 ------- 1 0.0 3.0 2 3
r 0.23856 1 2 tcp 1040 ------- 1 0.0 3.0 1 2
+ 0.23856 2 3 tcp 1040 ------- 1 0.0 3.0 1 2
- 0.23856 2 3 tcp 1040 ------- 1 0.0 3.0 1 2
r 0.24688 1 2 tcp 1040 ------- 1 0.0 3.0 2 3
+ 0.24688 2 3 tcp 1040 ------- 1 0.0 3.0 2 3
- 0.24688 2 3 tcp 1040 ------- 1 0.0 3.0 2 3
r 0.26188 2 3 tcp 1040 ------- 1 0.0 3.0 1 2
+ 0.26188 3 2 ack 40 ------- 1 3.0 0.0 1 4
- 0.26188 3 2 ack 40 ------- 1 3.0 0.0 1 4
r 0.2702 2 3 tcp 1040 ------- 1 0.0 3.0 2 3
+ 0.2702 3 2 ack 40 ------- 1 3.0 0.0 2 5
- 0.2702 3 2 ack 40 ------- 1 3.0 0.0 2 5
r 0.2772 3 2 ack 40 ------- 1 3.0 0.0 1 4
+ 0.2772 2 1 ack 40 ------- 1 3.0 0.0 1 4
- 0.2772 2 1 ack 40 ------- 1 3.0 0.0 1 4
r 0.28552 3 2 ack 40 ------- 1 3.0 0.0 2 5
+ 0.28552 2 1 ack 40 ------- 1 3.0 0.0 2 5
- 0.28552 2 1 ack 40 ------- 1 3.0 0.0 2 5
r 0.29252 2 1 ack 40 ------- 1 3.0 0.0 1 4
+ 0.29252 1 0 ack 40 ------- 1 3.0 0.0 1 4
- 0.29252 1 0 ack 40 ------- 1 3.0 0.0 1 4
r 0.30084 2 1 ack 40 ------- 1 3.0 0.0 2 5
+ 0.30084 1 0 ack 40 ------- 1 3.0 0.0 2 5
- 0.30084 1 0 ack 40 ------- 1 3.0 0.0 2 5
r 0.30784 1 0 ack 40 ------- 1 3.0 0.0 1 4
+ 0.30784 0 1 tcp 1040 ------- 1 0.0 3.0 3 6
- 0.30784 0 1 tcp 1040 ------- 1 0.0 3.0 3 6
+ 0.30784 0 1 tcp 1040 ------- 1 0.0 3.0 4 7
r 0.31616 1 0 ack 40 ------- 1 3.0 0.0 2 5
+ 0.31616 0 1 tcp 1040 ------- 1 0.0 3.0 5 8
+ 0.31616 0 1 tcp 1040 ------- 1 0.0 3.0 6 9
- 0.31616 0 1 tcp 1040 ------- 1 0.0 3.0 4 7
- 0.32448 0 1 tcp 1040 ------- 1 0.0 3.0 5 8
r 0.33116 0 1 tcp 1040 ------- 1 0.0 3.0 3 6
+ 0.33116 1 2 tcp 1040 ------- 1 0.0 3.0 3 6
- 0.33116 1 2 tcp 1040 ------- 1 0.0 3.0 3 6
- 0.3328 0 1 tcp 1040 ------- 1 0.0 3.0 6 9
r 0.33948 0 1 tcp 1040 ------- 1 0.0 3.0 4 7
+ 0.33948 1 2 tcp 1040 ------- 1 0.0 3.0 4 7
- 0.33948 1 2 tcp 1040 ------- 1 0.0 3.0 4 7
r 0.3478 0 1 tcp 1040 ------- 1 0.0 3.0 5 8
+ 0.3478 1 2 tcp 1040 ------- 1 0.0 3.0 5 8
- 0.3478 1 2 tcp 1040 ------- 1 0.0 3.0 5 8
r 0.35448 1 2 tcp 1040 ------- 1 0.0 3.0 3 6
+ 0.35448 2 3 tcp 1040 ------- 1 0.0 3.0 3 6
- 0.35448 2 3 tcp 1040 ------- 1 0.0 3.0 3 6
r 0.35612 0 1 tcp 1040 ------- 1 0.0 3.0 6 9
+ 0.35612 1 2 tcp 1040 ------- 1 0.0 3.0 6 9
- 0.35612 1 2 tcp 1040 ------- 1 0.0 3.0 6 9
r 0.3628 1 2 tcp 1040 ------- 1 0.0 3.0 4 7
+ 0.3628 2 3 tcp 1040 ------- 1 0.0 3.0 4 7
- 0.3628 2 3 tcp 1040 ------- 1 0.0 3.0 4 7
r 0.37112 1 2 tcp 1040 ------- 1 0.0 3.0 5 8
+ 0.37112 2 3 tcp 1040 ------- 1 0.0 3.0 5 8
- 0.37112 2 3 tcp 1040 ------- 1 0.0 3.0 5 8
r 0.3778 2 3 tcp 1040 ------- 1 0.0 3.0 3 6
+ 0.3778 3 2 ack 40 ------- 1 3.0 0.0 3 10
- 0.3778 3 2 ack 40 ------- 1 3.0 0.0 3 10
r 0.37944 1 2 tcp 1040 ------- 1 0.0 3.0 6 9
+ 0.37944 2 3 tcp 1040 ------- 1 0.0 3.0 6 9
- 0.37944 2 3 tcp 1040 ------- 1 0.0 3.0 6 9
r 0.38612 2 3 tcp 1040 ------- 1 0.0 3.0 4 7
+ 0.38612 3 2 ack 40 ------- 1 3.0 0.0 4 11
- 0.38612 3 2 ack 40 ------- 1 3.0 0.0 4 11
r 0.39312 3 2 ack 40 ------- 1 3.0 0.0 3 10
+ 0.39312 2 1 ack 40 ------- 1 3.0 0.0 3 10
- 0.39312 2 1 ack 40 ------- 1 3.0 0.0 3 10
r 0.39444 2 3 tcp 1040 ------- 1 0.0 3.0 5 8
+ 0.39444 3 2 ack 40 ------- 1 3.0 0.0 5 12
- 0.39444 3 2 ack 40 ------- 1 3.0 0.0 5 12
r 0.40144 3 2 ack 40 ------- 1 3.0 0.0 4 11
+ 0.40144 2 1 ack 40 ------- 1 3.0 0.0 4 11
- 0.40144 2 1 ack 40 ------- 1 3.0 0.0 4 11
r 0.40276 2 3 tcp 1040 ------- 1 0.0 3.0 6 9
+ 0.40276 3 2 ack 40 ------- 1 3.0 0.0 6 13
- 0.40276 3 2 ack 40 ------- 1 3.0 0.0 6 13
r 0.40844 2 1 ack 40 ------- 1 3.0 0.0 3 10
+ 0.40844 1 0 ack 40 ------- 1 3.0 0.0 3 10
- 0.40844 1 0 ack 40 ------- 1 3.0 0.0 3 10
r 0.40976 3 2 ack 40 ------- 1 3.0 0.0 5 12
+ 0.40976 2 1 ack 40 ------- 1 3.0 0.0 5 12
- 0.40976 2 1 ack 40 ------- 1 3.0 0.0 5 12
r 0.41676 2 1 ack 40 ------- 1 3.0 0.0 4 11
+ 0.41676 1 0 ack 40 ------- 1 3.0 0.0 4 11
- 0.41676 1 0 ack 40 ------- 1 3.0 0.0 4 11
r 0.41808 3 2 ack 40 ------- 1 3.0 0.0 6 13
+ 0.41808 2 1 ack 40 ------- 1 3.0 0.0 6 13
- 0.41808 2 1 ack 40 ------- 1 3.0 0.0 6 13
r 0.42376 1 0 ack 40 ------- 1 3.0 0.0 3 10
+ 0.42376 0 1 tcp 1040 ------- 1 0.0 3.0 7 14
- 0.42376 0 1 tcp 1040 ------- 1 0.0 3.0 7 14
+ 0.42376 0 1 tcp 1040 ------- 1 0.0 3.0 8 15
r 0.42508 2 1 ack 40 ------- 1 3.0 0.0 5 12
+ 0.42508 1 0 ack 40 ------- 1 3.0 0.0 5 12
- 0.42508 1 0 ack 40 ------- 1 3.0 0.0 5 12
r 0.43208 1 0 ack 40 ------- 1 3.0 0.0 4 11
+ 0.43208 0 1 tcp 1040 ------- 1 0.0 3.0 9 16
+ 0.43208 0 1 tcp 1040 ------- 1 0.0 3.0 10 17
- 0.43208 0 1 tcp 1040 ------- 1 0.0 3.0 8 15
r 0.4334 2 1 ack 40 ------- 1 3.0 0.0 6 13
+ 0.4334 1 0 ack 40 ------- 1 3.0 0.0 6 13
- 0.4334 1 0 ack 40 ------- 1 3.0 0.0 6 13
r 0.4404 1 0 ack 40 ------- 1 3.0 0.0 5 12
+ 0.4404 0 1 tcp 1040 ------- 1 0.0 3.0 11 18
+ 0.4404 0 1 tcp 1040 ------- 1 0.0 3.0 12 19
- 0.4404 0 1 tcp 1040 ------- 1 0.0 3.0 9 16
r 0.44708 0 1 tcp 1040 ------- 1 0.0 3.0 7 14
+ 0.44708 1 2 tcp 1040 ------- 1 0.0 3.0 7 14
- 0.44708 1 2 tcp 1040 ------- 1 0.0 3.0 7 14
r 0.44872 1 0 ack 40 ------- 1 3.0 0.0 6 13
+ 0.44872 0 1 tcp 1040 ------- 1 0.0 3.0 13 20
+ 0.44872 0 1 tcp 1040 ------- 1 0.0 3.0 14 21
- 0.44872 0 1 tcp 1040 ------- 1 0.0 3.0 10 17
r 0.4554 0 1 tcp 1040 ------- 1 0.0 3.0 8 15
+ 0.4554 1 2 tcp 1040 ------- 1 0.0 3.0 8 15
- 0.4554 1 2 tcp 1040 ------- 1 0.0 3.0 8 15
- 0.45704 0 1 tcp 1040 ------- 1 0.0 3.0 11 18
r 0.46372 0 1 tcp 1040 ------- 1 0.0 3.0 9 16
+ 0.46372 1 2 tcp 1040 ------- 1 0.0 3.0 9 16
- 0.46372 1 2 tcp 1040 ------- 1 0.0 3.0 9 16
- 0.46536 0 1 tcp 1040 ------- 1 0.0 3.0 12 19
r 0.4704 1 2 tcp 1040 ------- 1 0.0 3.0 7 14
+ 0.4704 2 3 tcp 1040 ------- 1 0.0 3.0 7 14
- 0.4704 2 3 tcp 1040 ------- 1 0.0 3.0 7 14
r 0.47204 0 1 tcp 1040 ------- 1 0.0 3.0 10 17
+ 0.47204 1 2 tcp 1040 ------- 1 0.0 3.0 10 17
- 0.47204 1 2 tcp 1040 ------- 1 0.0 3.0 10 17
- 0.47368 0 1 tcp 1040 ------- 1 0.0 3.0 13 20
r 0.47872 1 2 tcp 1040 ------- 1 0.0 3.0 8 15
+ 0.47872 2 3 tcp 1040 ------- 1 0.0 3.0 8 15
- 0.47872 2 3 tcp 1040 ------- 1 0.0 3.0 8 15
r 0.48036 0 1 tcp 1040 ------- 1 0.0 3.0 11 18
+ 0.48036 1 2 tcp 1040 ------- 1 0.0 3.0 11 18
- 0.48036 1 2 tcp 1040 ------- 1 0.0 3.0 11 18
- 0.482 0 1 tcp 1040 ------- 1 0.0 3.0 14 21
r 0.48704 1 2 tcp 1040 ------- 1 0.0 3.0 9 16
+ 0.48704 2 3 tcp 1040 ------- 1 0.0 3.0 9 16
- 0.48704 2 3 tcp 1040 ------- 1 0.0 3.0 9 16
r 0.48868 0 1 tcp 1040 ------- 1 0.0 3.0 12 19
+ 0.48868 1 2 tcp 1040 ------- 1 0.0 3.0 12 19
- 0.48868 1 2 tcp 1040 ------- 1 0.0 3.0 12 19
r 0.49372 2 3 tcp 1040 ------- 1 0.0 3.0 7 14
+ 0.49372 3 2 ack 40 ------- 1 3.0 0.0 7 22
- 0.49372 3 2 ack 40 ------- 1 3.0 0.0 7 22
r 0.49536 1 2 tcp 1040 ------- 1 0.0 3.0 10 17
+ 0.49536 2 3 tcp 1040 ------- 1 0.0 3.0 10 17
- 0.49536 2 3 tcp 1040 ------- 1 0.0 3.0 10 17
r 0.497 0 1 tcp 1040 ------- 1 0.0 3.0 13 20
+ 0.497 1 2 tcp 1040 ------- 1 0.0 3.0 13 20
- 0.497 1 2 tcp 1040 ------- 1 0.0 3.0 13 20
r 0.50204 2 3 tcp 1040 ------- 1 0.0 3.0 8 15
+ 0.50204 3 2 ack 40 ------- 1 3.0 0.0 8 23
- 0.50204 3 2 ack 40 ------- 1 3.0 0.0 8 23
r 0.50368 1 2 tcp 1040 ------- 1 0.0 3.0 11 18
+ 0.50368 2 3 tcp 1040 ------- 1 0.0 3.0 11 18
- 0.50368 2 3 tcp 1040 ------- 1 0.0 3.0 11 18
r 0.50532 0 1 tcp 1040 ------- 1 0.0 3.0 14 21
+ 0.50532 1 2 tcp 1040 ------- 1 0.0 3.0 14 21
- 0.50532 1 2 tcp 1040 ------- 1 0.0 3.0 14 21
r 0.50904 3 2 ack 40 ------- 1 3.0 0.0 7 22
+ 0.50904 2 1 ack 40 ------- 1 3.0 0.0 7 22
- 0.50904 2 1 ack 40 ------- 1 3.0 0.0 7 22
r 0.51036 2 3 tcp 1040 ------- 1 0.0 3.0 9 16
+ 0.51036 3 2 ack 40 ------- 1 3.0 0.0 9 24
- 0.51036 3 2 ack 40 ------- 1 3.0 0.0 9 24
r 0.512 1 2 tcp 1040 ------- 1 0.0 3.0 12 19
+ 0.512 2 3 tcp 1040 ------- 1 0.0 3.0 12 19
- 0.512 2 3 tcp 1040 ------- 1 0.0 3.0 12 19
r 0.51736 3 2 ack 40 ------- 1 3.0 0.0 8 23
+ 0.51736 2 1 ack 40 ------- 1 3.0 0.0 8 23
- 0.51736 2 1 ack 40 ------- 1 3.0 0.0 8 23
r 0.51868 2 3 tcp 1040 ------- 1 0.0 3.0 10 17
+ 0.51868 3 2 ack 40 ------- 1 3.0 0.0 10 25
- 0.51868 3 2 ack 40 ------- 1 3.0 0.0 10 25
r 0.52032 1 2 tcp 1040 ------- 1 0.0 3.0 13 20
+ 0.52032 2 3 tcp 1040 ------- 1 0.0 3.0 13 20
- 0.52032 2 3 tcp 1040 ------- 1 0.0 3.0 13 20
r 0.52436 2 1 ack 40 ------- 1 3.0 0.0 7 22
+ 0.52436 1 0 ack 40 ------- 1 3.0 0.0 7 22
- 0.52436 1 0 ack 40 ------- 1 3.0 0.0 7 22
r 0.52568 3 2 ack 40 ------- 1 3.0 0.0 9 24
+ 0.52568 2 1 ack 40 ------- 1 3.0 0.0 9 24
- 0.52568 2 1 ack 40 ------- 1 3.0 0.0 9 24
r 0.527 2 3 tcp 1040 ------- 1 0.0 3.0 11 18
+ 0.527 3 2 ack 40 ------- 1 3.0 0.0 11 26
- 0.527 3 2 ack 40 ------- 1 3.0 0.0 11 26
r 0.52864 1 2 tcp 1040 ------- 1 0.0 3.0 14 21
+ 0.52864 2 3 tcp 1040 ------- 1 0.0 3.0 14 21
- 0.52864 2 3 tcp 1040 ------- 1 0.0 3.0 14 21
r 0.53268 2 1 ack 40 ------- 1 3.0 0.0 8 23
+ 0.53268 1 0 ack 40 ------- 1 3.0 0.0 8 23
- 0.53268 1 0 ack 40 ------- 1 3.0 0.0 8 23
r 0.534 3 2 ack 40 ------- 1 3.0 0.0 10 25
+ 0.534 2 1 ack 40 ------- 1 3.0 0.0 10 25
- 0.534 2 1 ack 40 ------- 1 3.0 0.0 10 25
r 0.53532 2 3 tcp 1040 ------- 1 0.0 3.0 12 19
+ 0.53532 3 2 ack 40 ------- 1 3.0 0.0 12 27
- 0.53532 3 2 ack 40 ------- 1 3.0 0.0 12 27
r 0.53968 1 0 ack 40 ------- 1 3.0 0.0 7 22
+ 0.53968 0 1 tcp 1040 ------- 1 0.0 3.0 15 28
- 0.53968 0 1 tcp 1040 ------- 1 0.0 3.0 15 28
+ 0.53968 0 1 tcp 1040 ------- 1 0.0 3.0 16 29
r 0.541 2 1 ack 40 ------- 1 3.0 0.0 9 24
+ 0.541 1 0 ack 40 ------- 1 3.0 0.0 9 24
- 0.541 1 0 ack 40 ------- 1 3.0 0.0 9 24
r 0.54232 3 2 ack 40 ------- 1 3.0 0.0 11 26
+ 0.54232 2 1 ack 40 ------- 1 3.0 0.0 11 26
- 0.54232 2 1 ack 40 ------- 1 3.0 0.0 11 26
r 0.54364 2 3 tcp 1040 ------- 1 0.0 3.0 13 20
+ 0.54364 3 2 ack 40 ------- 1 3.0 0.0 13 30
- 0.54364 3 2 ack 40 ------- 1 3.0 0.0 13 30
r 0.548 1 0 ack 40 ------- 1 3.0 0.0 8 23
+ 0.548 0 1 tcp 1040 ------- 1 0.0 3.0 17 31
+ 0.548 0 1 tcp 1040 ------- 1 0.0 3.0 18 32
- 0.548 0 1 tcp 1040 ------- 1 0.0 3.0 16 29
r 0.54932 2 1 ack 40 ------- 1 3.0 0.0 10 25
+ 0.54932 1 0 ack 40 ------- 1 3.0 0.0 10 25
- 0.54932 1 0 ack 40 ------- 1 3.0 0.0 10 25
r 0.55064 3 2 ack 40 ------- 1 3.0 0.0 12 27
+ 0.55064 2 1 ack 40 ------- 1 3.0 0.0 12 27
- 0.55064 2 1 ack 40 ------- 1 3.0 0.0 12 27
r 0.55196 2 3 tcp 1040 ------- 1 0.0 3.0 14 21
+ 0.55196 3 2 ack 40 ------- 1 3.0 0.0 14 33
- 0.55196 3 2 ack 40 ------- 1 3.0 0.0 14 33
r 0.55632 1 0 ack 40 ------- 1 3.0 0.0 9 24
+ 0.55632 0 1 tcp 1040 ------- 1 0.0 3.0 19 34
+ 0.55632 0 1 tcp 1040 ------- 1 0.0 3.0 20 35
- 0.55632 0 1 tcp 1040 ------- 1 0.0 3.0 17 31
r 0.55764 2 1 ack 40 ------- 1 3.0 0.0 11 26
+ 0.55764 1 0 ack 40 ------- 1 3.0 0.0 11 26
- 0.55764 1 0 ack 40 ------- 1 3.0 0.0 11 26
r 0.55896 3 2 ack 40 ------- 1 3.0 0.0 13 30
+ 0.55896 2 1 ack 40 ------- 1 3.0 0.0 13 30
- 0.55896 2 1 ack 40 ------- 1 3.0 0.0 13 30
r 0.563 0 1 tcp 1040 ------- 1 0.0 3.0 15 28
+ 0.563 1 2 tcp 1040 ------- 1 0.0 3.0 15 28
- 0.563 1 2 tcp 1040 ------- 1 0.0 3.0 15 28
r 0.56464 1 0 ack 40 ------- 1 3.0 0.0 10 25
+ 0.56464 0 1 tcp 1040 ------- 1 0.0 3.0 21 36
+ 0.56464 0 1 tcp 1040 ------- 1 0.0 3.0 22 37
- 0.56464 0 1 tcp 1040 ------- 1 0.0 3.0 18 32
r 0.56596 2 1 ack 40 ------- 1 3.0 0.0 12 27
+ 0.56596 1 0 ack 40 ------- 1 3.0 0.0 12 27
- 0.56596 1 0 ack 40 ------- 1 3.0 0.0 12 27
r 0.56728 3 2 ack 40 ------- 1 3.0 0.0 14 33
+ 0.56728 2 1 ack 40 ------- 1 3.0 0.0 14 33
- 0.56728 2 1 ack 40 ------- 1 3.0 0.0 14 33
r 0.57132 0 1 tcp 1040 ------- 1 0.0 3.0 16 29
+ 0.57132 1 2 tcp 1040 ------- 1 0.0 3.0 16 29
- 0.57132 1 2 tcp 1040 ------- 1 0.0 3.0 16 29
r 0.57296 1 0 ack 40 ------- 1 3.0 0.0 11 26
+ 0.57296 0 1 tcp 1040 ------- 1 0.0 3.0 23 38
+ 0.57296 0 1 tcp 1040 ------- 1 0.0 3.0 24 39
- 0.57296 0 1 tcp 1040 ------- 1 0.0 3.0 19 34
r 0.57428 2 1 ack 40 ------- 1 3.0 0.0 13 30
+ 0.57428 1 0 ack 40 ------- 1 3.0 0.0 13 30
- 0.57428 1 0 ack 40 ------- 1 3.0 0.0 13 30
r 0.57964 0 1 tcp 1040 ------- 1 0.0 3.0 17 31
+ 0.57964 1 2 tcp 1040 ------- 1 0.0 3.0 17 31
- 0.57964 1 2 tcp 1040 ------- 1 0.0 3.0 17 31
r 0.58128 1 0 ack 40 ------- 1 3.0 0.0 12 27
+ 0.58128 0 1 tcp 1040 ------- 1 0.0 3.0 25 40
+ 0.58128 0 1 tcp 1040 ------- 1 0.0 3.0 26 41
- 0.58128 0 1 tcp 1040 ------- 1 0.0 3.0 20 35
r 0.5826 2 1 ack 40 ------- 1 3.0 0.0 14 33
+ 0.5826 1 0 ack 40 ------- 1 3.0 0.0 14 33
- 0.5826 1 0 ack 40 ------- 1 3.0 0.0 14 33
r 0.58632 1 2 tcp 1040 ------- 1 0.0 3.0 15 28
+ 0.58632 2 3 tcp 1040 ------- 1 0.0 3.0 15 28
- 0.58632 2 3 tcp 1040 ------- 1 0.0 3.0 15 28
r 0.58796 0 1 tcp 1040 ------- 1 0.0 3.0 18 32
+ 0.58796 1 2 tcp 1040 ------- 1 0.0 3.0 18 32
- 0.58796 1 2 tcp 1040 ------- 1 0.0 3.0 18 32
r 0.5896 1 0 ack 40 ------- 1 3.0 0.0 13 30
+ 0.5896 0 1 tcp 1040 ------- 1 0.0 3.0 27 42
+ 0.5896 0 1 tcp 1040 ------- 1 0.0 3.0 28 43
- 0.5896 0 1 tcp 1040 ------- 1 0.0 3.0 21 36
r 0.59464 1 2 tcp 1040 ------- 1 0.0 3.0 16 29
+ 0.59464 2 3 tcp 1040 ------- 1 0.0 3.0 16 29
- 0.59464 2 3 tcp 1040 ------- 1 0.0 3.0 16 29
r 0.59628 0 1 tcp 1040 ------- 1 0.0 3.0 19 34
+ 0.59628 1 2 tcp 1040 ------- 1 0.0 3.0 19 34
- 0.59628 1 2 tcp 1040 ------- 1 0.0 3.0 19 34
r 0.59792 1 0 ack 40 ------- 1 3.0 0.0 14 33
+ 0.59792 0 1 tcp 1040 ------- 1 0.0 3.0 29 44
+ 0.59792 0 1 tcp 1040 ------- 1 0.0 3.0 30 45
- 0.59792 0 1 tcp 1040 ------- 1 0.0 3.0 22 37
r 0.60296 1 2 tcp 1040 ------- 1 0.0 3.0 17 31
+ 0.60296 2 3 tcp 1040 ------- 1 0.0 3.0 17 31
- 0.60296 2 3 tcp 1040 ------- 1 0.0 3.0 17 31
r 0.6046 0 1 tcp 1040 ------- 1 0.0 3.0 20 35
+ 0.6046 1 2 tcp 1040 ------- 1 0.0 3.0 20 35
- 0.6046 1 2 tcp 1040 ------- 1 0.0 3.0 20 35
- 0.60624 0 1 tcp 1040 ------- 1 0.0 3.0 23 38
r 0.60964 2 3 tcp 1040 ------- 1 0.0 3.0 15 28
+ 0.60964 3 2 ack 40 ------- 1 3.0 0.0 15 46
- 0.60964 3 2 ack 40 ------- 1 3.0 0.0 15 46
r 0.61128 1 2 tcp 1040 ------- 1 0.0 3.0 18 32
+ 0.61128 2 3 tcp 1040 ------- 1 0.0 3.0 18 32
- 0.61128 2 3 tcp 1040 ------- 1 0.0 3.0 18 32
r 0.61292 0 1 tcp 1040 ------- 1 0.0 3.0 21 36
+ 0.61292 1 2 tcp 1040 ------- 1 0.0 3.0 21 36
- 0.61292 1 2 tcp 1040 ------- 1 0.0 3.0 21 36
- 0.61456 0 1 tcp 1040 ------- 1 0.0 3.0 24 39
r 0.61796 2 3 tcp 1040 ------- 1 0.0 3.0 16 29
+ 0.61796 3 2 ack 40 ------- 1 3.0 0.0 16 47
- 0.61796 3 2 ack 40 ------- 1 3.0 0.0 16 47
r 0.6196 1 2 tcp 1040 ------- 1 0.0 3.0 19 34
+ 0.6196 2 3 tcp 1040 ------- 1 0.0 3.0 19 34
- 0.6196 2 3 tcp 1040 ------- 1 0.0 3.0 19 34
r 0.62124 0 1 tcp 1040 ------- 1 0.0 3.0 22 37
+ 0.62124 1 2 tcp 1040 ------- 1 0.0 3.0 22 37
- 0.62124 1 2 tcp 1040 ------- 1 0.0 3.0 22 37
- 0.62288 0 1 tcp 1040 ------- 1 0.0 3.0 25 40
r 0.62496 3 2 ack 40 ------- 1 3.0 0.0 15 46
+ 0.62496 2 1 ack 40 ------- 1 3.0 0.0 15 46
- 0.62496 2 1 ack 40 ------- 1 3.0 0.0 15 46
r 0.62628 2 3 tcp 1040 ------- 1 0.0 3.0 17 31
+ 0.62628 3 2 ack 40 ------- 1 3.0 0.0 17 48
- 0.62628 3 2 ack 40 ------- 1 3.0 0.0 17 48
r 0.62792 1 2 tcp 1040 ------- 1 0.0 3.0 20 35
+ 0.62792 2 3 tcp 1040 ------- 1 0.0 3.0 20 35
- 0.62792 2 3 tcp 1040 ------- 1 0.0 3.0 20 35
r 0.62956 0 1 tcp 1040 ------- 1 0.0 3.0 23 38
+ 0.62956 1 2 tcp 1040 ------- 1 0.0 3.0 23 38
- 0.62956 1 2 tcp 1040 ------- 1 0.0 3.0 23 38
- 0.6312 0 1 tcp 1040 ------- 1 0.0 3.0 26 41
r 0.63328 3 2 ack 40 ------- 1 3.0 0.0 16 47
+ 0.63328 2 1 ack 40 ------- 1 3.0 0.0 16 47
- 0.63328 2 1 ack 40 ------- 1 3.0 0.0 16 47
r 0.6346 2 3 tcp 1040 ------- 1 0.0 3.0 18 32
+ 0.6346 3 2 ack 40 ------- 1 3.0 0.0 18 49
- 0.6346 3 2 ack 40 ------- 1 3.0 0.0 18 49
r 0.63624 1 2 tcp 1040 ------- 1 0.0 3.0 21 36
+ 0.63624 2 3 tcp 1040 ------- 1 0.0 3.0 21 36
- 0.63624 2 3 tcp 1040 ------- 1 0.0 3.0 21 36
r 0.63788 0 1 tcp 1040 ------- 1 0.0 3.0 24 39
+ 0.63788 1 2 tcp 1040 ------- 1 0.0 3.0 24 39
- 0.63788 1 2 tcp 1040 ------- 1 0.0 3.0 24 39
- 0.63952 0 1 tcp 1040 ------- 1 0.0 3.0 27 42
r 0.64028 2 1 ack 40 ------- 1 3.0 0.0 15 46
+ 0.64028 1 0 ack 40 ------- 1 3.0 0.0 15 46
- 0.64028 1 0 ack 40 ------- 1 3.0 0.0 15 46
r 0.6416 3 2 ack 40 ------- 1 3.0 0.0 17 48
+ 0.6416 2 1 ack 40 ------- 1 3.0 0.0 17 48
- 0.6416 2 1 ack 40 ------- 1 3.0 0.0 17 48
r 0.64292 2 3 tcp 1040 ------- 1 0.0 3.0 19 34
+ 0.64292 3 2 ack 40 ------- 1 3.0 0.0 19 50
- 0.64292 3 2 ack 40 ------- 1 3.0 0.0 19 50
r 0.64456 1 2 tcp 1040 ------- 1 0.0 3.0 22 37
+ 0.64456 2 3 tcp 1040 ------- 1 0.0 3.0 22 37
- 0.64456 2 3 tcp 1040 ------- 1 0.0 3.0 22 37
r 0.6462 0 1 tcp 1040 ------- 1 0.0 3.0 25 40
+ 0.6462 1 2 tcp 1040 ------- 1 0.0 3.0 25 40
- 0.6462 1 2 tcp 1040 ------- 1 0.0 3.0 25 40
- 0.64784 0 1 tcp 1040 ------- 1 0.0 3.0 28 43
r 0.6486 2 1 ack 40 ------- 1 3.0 0.0 16 47
+ 0.6486 1 0 ack 40 ------- 1 3.0 0.0 16 47
- 0.6486 1 0 ack 40 ------- 1 3.0 0.0 16 47
r 0.64992 3 2 ack 40 ------- 1 3.0 0.0 18 49
+ 0.64992 2 1 ack 40 ------- 1 3.0 0.0 18 49
- 0.64992 2 1 ack 40 ------- 1 3.0 0.0 18 49
r 0.65124 2 3 tcp 1040 ------- 1 0.0 3.0 20 35
+ 0.65124 3 2 ack 40 ------- 1 3.0 0.0 20 51
- 0.65124 3 2 ack 40 ------- 1 3.0 0.0 20 51
r 0.65288 1 2 tcp 1040 ------- 1 0.0 3.0 23 38
+ 0.65288 2 3 tcp 1040 ------- 1 0.0 3.0 23 38
- 0.65288 2 3 tcp 1040 ------- 1 0.0 3.0 23 38
r 0.65452 0 1 tcp 1040 ------- 1 0.0 3.0 26 41
+ 0.65452 1 2 tcp 1040 ------- 1 0.0 3.0 26 41
- 0.65452 1 2 tcp 1040 ------- 1 0.0 3.0 26 41
r 0.6556 1 0 ack 40 ------- 1 3.0 0.0 15 46
+ 0.6556 0 1 tcp 1040 ------- 1 0.0 3.0 31 52
+ 0.6556 0 1 tcp 1040 ------- 1 0.0 3.0 32 53
- 0.65616 0 1 tcp 1040 ------- 1 0.0 3.0 29 44
r 0.65692 2 1 ack 40 ------- 1 3.0 0.0 17 48
+ 0.65692 1 0 ack 40 ------- 1 3.0 0.0 17 48
- 0.65692 1 0 ack 40 ------- 1 3.0 0.0 17 48
r 0.65824 3 2 ack 40 ------- 1 3.0 0.0 19 50
+ 0.65824 2 1 ack 40 ------- 1 3.0 0.0 19 50
- 0.65824 2 1 ack 40 ------- 1 3.0 0.0 19 50
r 0.65956 2 3 tcp 1040 ------- 1 0.0 3.0 21 36
+ 0.65956 3 2 ack 40 ------- 1 3.0 0.0 21 54
- 0.65956 3 2 ack 40 ------- 1 3.0 0.0 21 54
r 0.6612 1 2 tcp 1040 ------- 1 0.0 3.0 24 39
+ 0.6612 2 3 tcp 1040 ------- 1 0.0 3.0 24 39
- 0.6612 2 3 tcp 1040 ------- 1 0.0 3.0 24 39
r 0.66284 0 1 tcp 1040 ------- 1 0.0 3.0 27 42
+ 0.66284 1 2 tcp 1040 ------- 1 0.0 3.0 27 42
- 0.66284 1 2 tcp 1040 ------- 1 0.0 3.0 27 42
r 0.66392 1 0 ack 40 ------- 1 3.0 0.0 16 47
+ 0.66392 0 1 tcp 1040 ------- 1 0.0 3.0 33 55
+ 0.66392 0 1 tcp 1040 ------- 1 0.0 3.0 34 56
- 0.66448 0 1 tcp 1040 ------- 1 0.0 3.0 30 45
r 0.66524 2 1 ack 40 ------- 1 3.0 0.0 18 49
+ 0.66524 1 0 ack 40 ------- 1 3.0 0.0 18 49
- 0.66524 1 0 ack 40 ------- 1 3.0 0.0 18 49
r 0.66656 3 2 ack 40 ------- 1 3.0 0.0 20 51
+ 0.66656 2 1 ack 40 ------- 1 3.0 0.0 20 51
- 0.66656 2 1 ack 40 ------- 1 3.0 0.0 20 51
r 0.66788 2 3 tcp 1040 ------- 1 0.0 3.0 22 37
+ 0.66788 3 2 ack 40 ------- 1 3.0 0.0 22 57
- 0.66788 3 2 ack 40 ------- 1 3.0 0.0 22 57
r 0.66952 1 2 tcp 1040 ------- 1 0.0 3.0 25 40
+ 0.66952 2 3 tcp 1040 ------- 1 0.0 3.0 25 40
- 0.66952 2 3 tcp 1040 ------- 1 0.0 3.0 25 40
r 0.67116 0 1 tcp 1040 ------- 1 0.0 3.0 28 43
+ 0.67116 1 2 tcp 1040 ------- 1 0.0 3.0 28 43
- 0.67116 1 2 tcp 1040 ------- 1 0.0 3.0 28 43
r 0.67224 1 0 ack 40 ------- 1 3.0 0.0 17 48
+ 0.67224 0 1 tcp 1040 ------- 1 0.0 3.0 35 58
+ 0.67224 0 1 tcp 1040 ------- 1 0.0 3.0 36 59
- 0.6728 0 1 tcp 1040 ------- 1 0.0 3.0 31 52
r 0.67356 2 1 ack 40 ------- 1 3.0 0.0 19 50
+ 0.67356 1 0 ack 40 ------- 1 3.0 0.0 19 50
- 0.67356 1 0 ack 40 ------- 1 3.0 0.0 19 50
r 0.67488 3 2 ack 40 ------- 1 3.0 0.0 21 54
+ 0.67488 2 1 ack 40 ------- 1 3.0 0.0 21 54
- 0.67488 2 1 ack 40 ------- 1 3.0 0.0 21 54
r 0.6762 2 3 tcp 1040 ------- 1 0.0 3.0 23 38
+ 0.6762 3 2 ack 40 ------- 1 3.0 0.0 23 60
- 0.6762 3 2 ack 40 ------- 1 3.0 0.0 23 60
r 0.67784 1 2 tcp 1040 ------- 1 0.0 3.0 26 41
+ 0.67784 2 3 tcp 1040 ------- 1 0.0 3.0 26 41
- 0.67784 2 3 tcp 1040 ------- 1 0.0 3.0 26 41
r 0.67948 0 1 tcp 1040 ------- 1 0.0 3.0 29 44
+ 0.67948 1 2 tcp 1040 ------- 1 0.0 3.0 29 44
- 0.67948 1 2 tcp 1040 ------- 1 0.0 3.0 29 44
r 0.68056 1 0 ack 40 ------- 1 3.0 0.0 18 49
+ 0.68056 0 1 tcp 1040 ------- 1 0.0 3.0 37 61
+ 0.68056 0 1 tcp 1040 ------- 1 0.0 3.0 38 62
- 0.68112 0 1 tcp 1040 ------- 1 0.0 3.0 32 53
r 0.68188 2 1 ack 40 ------- 1 3.0 0.0 20 51
+ 0.68188 1 0 ack 40 ------- 1 3.0 0.0 20 51
- 0.68188 1 0 ack 40 ------- 1 3.0 0.0 20 51
r 0.6832 3 2 ack 40 ------- 1 3.0 0.0 22 57
+ 0.6832 2 1 ack 40 ------- 1 3.0 0.0 22 57
- 0.6832 2 1 ack 40 ------- 1 3.0 0.0 22 57
r 0.68452 2 3 tcp 1040 ------- 1 0.0 3.0 24 39
+ 0.68452 3 2 ack 40 ------- 1 3.0 0.0 24 63
- 0.68452 3 2 ack 40 ------- 1 3.0 0.0 24 63
r 0.68616 1 2 tcp 1040 ------- 1 0.0 3.0 27 42
+ 0.68616 2 3 tcp 1040 ------- 1 0.0 3.0 27 42
- 0.68616 2 3 tcp 1040 ------- 1 0.0 3.0 27 42
r 0.6878 0 1 tcp 1040 ------- 1 0.0 3.0 30 45
+ 0.6878 1 2 tcp 1040 ------- 1 0.0 3.0 30 45
- 0.6878 1 2 tcp 1040 ------- 1 0.0 3.0 30 45
r 0.68888 1 0 ack 40 ------- 1 3.0 0.0 19 50
+ 0.68888 0 1 tcp 1040 ------- 1 0.0 3.0 39 64
- 0.68944 0 1 tcp 1040 ------- 1 0.0 3.0 33 55
r 0.6902 2 1 ack 40 ------- 1 3.0 0.0 21 54
+ 0.6902 1 0 ack 40 ------- 1 3.0 0.0 21 54
- 0.6902 1 0 ack 40 ------- 1 3.0 0.0 21 54
r 0.69152 3 2 ack 40 ------- 1 3.0 0.0 23 60
+ 0.69152 2 1 ack 40 ------- 1 3.0 0.0 23 60
- 0.69152 2 1 ack 40 ------- 1 3.0 0.0 23 60
r 0.69284 2 3 tcp 1040 ------- 1 0.0 3.0 25 40
+ 0.69284 3 2 ack 40 ------- 1 3.0 0.0 25 65
- 0.69284 3 2 ack 40 ------- 1 3.0 0.0 25 65
r 0.69448 1 2 tcp 1040 ------- 1 0.0 3.0 28 43
+ 0.69448 2 3 tcp 1040 ------- 1 0.0 3.0 28 43
- 0.69448 2 3 tcp 1040 ------- 1 0.0 3.0 28 43
r 0.69612 0 1 tcp 1040 ------- 1 0.0 3.0 31 52
+ 0.69612 1 2 tcp 1040 ------- 1 0.0 3.0 31 52
- 0.69612 1 2 tcp 1040 ------- 1 0.0 3.0 31 52
r 0.6972 1 0 ack 40 ------- 1 3.0 0.0 20 51
+ 0.6972 0 1 tcp 1040 ------- 1 0.0 3.0 40 66
- 0.69776 0 1 tcp 1040 ------- 1 0.0 3.0 34 56
r 0.69852 2 1 ack 40 ------- 1 3.0 0.0 22 57
+ 0.69852 1 0 ack 40 ------- 1 3.0 0.0 22 57
- 0.69852 1 0 ack 40 ------- 1 3.0 0.0 22 57
r 0.69984 3 2 ack 40 ------- 1 3.0 0.0 24 63
+ 0.69984 2 1 ack 40 ------- 1 3.0 0.0 24 63
- 0.69984 2 1 ack 40 ------- 1 3.0 0.0 24 63
r 0.70116 2 3 tcp 1040 ------- 1 0.0 3.0 26 41
+ 0.70116 3 2 ack 40 ------- 1 3.0 0.0 26 67
- 0.70116 3 2 ack 40 ------- 1 3.0 0.0 26 67
r 0.7028 1 2 tcp 1040 ------- 1 0.0 3.0 29 44
+ 0.7028 2 3 tcp 1040 ------- 1 0.0 3.0 29 44
- 0.7028 2 3 tcp 1040 ------- 1 0.0 3.0 29 44
r 0.70444 0 1 tcp 1040 ------- 1 0.0 3.0 32 53
+ 0.70444 1 2 tcp 1040 ------- 1 0.0 3.0 32 53
- 0.70444 1 2 tcp 1040 ------- 1 0.0 3.0 32 53
r 0.70552 1 0 ack 40 ------- 1 3.0 0.0 21 54
+ 0.70552 0 1 tcp 1040 ------- 1 0.0 3.0 41 68
- 0.70608 0 1 tcp 1040 ------- 1 0.0 3.0 35 58
r 0.70684 2 1 ack 40 ------- 1 3.0 0.0 23 60
+ 0.70684 1 0 ack 40 ------- 1 3.0 0.0 23 60
- 0.70684 1 0 ack 40 ------- 1 3.0 0.0 23 60
r 0.70816 3 2 ack 40 ------- 1 3.0 0.0 25 65
+ 0.70816 2 1 ack 40 ------- 1 3.0 0.0 25 65
- 0.70816 2 1 ack 40 ------- 1 3.0 0.0 25 65
r 0.70948 2 3 tcp 1040 ------- 1 0.0 3.0 27 42
+ 0.70948 3 2 ack 40 ------- 1 3.0 0.0 27 69
- 0.70948 3 2 ack 40 ------- 1 3.0 0.0 27 69
r 0.71112 1 2 tcp 1040 ------- 1 0.0 3.0 30 45
+ 0.71112 2 3 tcp 1040 ------- 1 0.0 3.0 30 45
- 0.71112 2 3 tcp 1040 ------- 1 0.0 3.0 30 45
r 0.71276 0 1 tcp 1040 ------- 1 0.0 3.0 33 55
+ 0.71276 1 2 tcp 1040 ------- 1 0.0 3.0 33 55
- 0.71276 1 2 tcp 1040 ------- 1 0.0 3.0 33 55
r 0.71384 1 0 ack 40 ------- 1 3.0 0.0 22 57
+ 0.71384 0 1 tcp 1040 ------- 1 0.0 3.0 42 70
- 0.7144 0 1 tcp 1040 ------- 1 0.0 3.0 36 59
r 0.71516 2 1 ack 40 ------- 1 3.0 0.0 24 63
+ 0.71516 1 0 ack 40 ------- 1 3.0 0.0 24 63
- 0.71516 1 0 ack 40 ------- 1 3.0 0.0 24 63
r 0.71648 3 2 ack 40 ------- 1 3.0 0.0 26 67
+ 0.71648 2 1 ack 40 ------- 1 3.0 0.0 26 67
- 0.71648 2 1 ack 40 ------- 1 3.0 0.0 26 67
r 0.7178 2 3 tcp 1040 ------- 1 0.0 3.0 28 43
+ 0.7178 3 2 ack 40 ------- 1 3.0 0.0 28 71
- 0.7178 3 2 ack 40 ------- 1 3.0 0.0 28 71
r 0.71944 1 2 tcp 1040 ------- 1 0.0 3.0 31 52
+ 0.71944 2 3 tcp 1040 ------- 1 0.0 3.0 31 52
- 0.71944 2 3 tcp 1040 ------- 1 0.0 3.0 31 52
r 0.72108 0 1 tcp 1040 ------- 1 0.0 3.0 34 56
+ 0.72108 1 2 tcp 1040 ------- 1 0.0 3.0 34 56
- 0.72108 1 2 tcp 1040 ------- 1 0.0 3.0 34 56
r 0.72216 1 0 ack 40 ------- 1 3.0 0.0 23 60
+ 0.72216 0 1 tcp 1040 ------- 1 0.0 3.0 43 72
- 0.72272 0 1 tcp 1040 ------- 1 0.0 3.0 37 61
r 0.72348 2 1 ack 40 ------- 1 3.0 0.0 25 65
+ 0.72348 1 0 ack 40 ------- 1 3.0 0.0 25 65
- 0.72348 1 0 ack 40 ------- 1 3.0 0.0 25 65
r 0.7248 3 2 ack 40 ------- 1 3.0 0.0 27 69
+ 0.7248 2 1 ack 40 ------- 1 3.0 0.0 27 69
- 0.7248 2 1 ack 40 ------- 1 3.0 0.0 27 69
r 0.72612 2 3 tcp 1040 ------- 1 0.0 3.0 29 44
+ 0.72612 3 2 ack 40 ------- 1 3.0 0.0 29 73
- 0.72612 3 2 ack 40 ------- 1 3.0 0.0 29 73
r 0.72776 1 2 tcp 1040 ------- 1 0.0 3.0 32 53
+ 0.72776 2 3 tcp 1040 ------- 1 0.0 3.0 32 53
- 0.72776 2 3 tcp 1040 ------- 1 0.0 3.0 32 53
r 0.7294 0 1 tcp 1040 ------- 1 0.0 3.0 35 58
+ 0.7294 1 2 tcp 1040 ------- 1 0.0 3.0 35 58
- 0.7294 1 2 tcp 1040 ------- 1 0.0 3.0 35 58
r 0.73048 1 0 ack 40 ------- 1 3.0 0.0 24 63
+ 0.73048 0 1 tcp 1040 ------- 1 0.0 3.0 44 74
- 0.73104 0 1 tcp 1040 ------- 1 0.0 3.0 38 62
r 0.7318 2 1 ack 40 ------- 1 3.0 0.0 26 67
+ 0.7318 1 0 ack 40 ------- 1 3.0 0.0 26 67
- 0.7318 1 0 ack 40 ------- 1 3.0 0.0 26 67
r 0.73312 3 2 ack 40 ------- 1 3.0 0.0 28 71
+ 0.73312 2 1 ack 40 ------- 1 3.0 0.0 28 71
- 0.73312 2 1 ack 40 ------- 1 3.0 0.0 28 71
r 0.73444 2 3 tcp 1040 ------- 1 0.0 3.0 30 45
+ 0.73444 3 2 ack 40 ------- 1 3.0 0.0 30 75
- 0.73444 3 2 ack 40 ------- 1 3.0 0.0 30 75
r 0.73608 1 2 tcp 1040 ------- 1 0.0 3.0 33 55
+ 0.73608 2 3 tcp 1040 ------- 1 0.0 3.0 33 55
- 0.73608 2 3 tcp 1040 ------- 1 0.0 3.0 33 55
r 0.73772 0 1 tcp 1040 ------- 1 0.0 3.0 36 59
+ 0.73772 1 2 tcp 1040 ------- 1 0.0 3.0 36 59
- 0.73772 1 2 tcp 1040 ------- 1 0.0 3.0 36 59
r 0.7388 1 0 ack 40 ------- 1 3.0 0.0 25 65
+ 0.7388 0 1 tcp 1040 ------- 1 0.0 3.0 45 76
- 0.73936 0 1 tcp 1040 ------- 1 0.0 3.0 39 64
r 0.74012 2 1 ack 40 ------- 1 3.0 0.0 27 69
+ 0.74012 1 0 ack 40 ------- 1 3.0 0.0 27 69
- 0.74012 1 0 ack 40 ------- 1 3.0 0.0 27 69
r 0.74144 3 2 ack 40 ------- 1 3.0 0.0 29 73
+ 0.74144 2 1 ack 40 ------- 1 3.0 0.0 29 73
- 0.74144 2 1 ack 40 ------- 1 3.0 0.0 29 73
r 0.74276 2 3 tcp 1040 ------- 1 0.0 3.0 31 52
+ 0.74276 3 2 ack 40 ------- 1 3.0 0.0 31 77
- 0.74276 3 2 ack 40 ------- 1 3.0 0.0 31 77
r 0.7444 1 2 tcp 1040 ------- 1 0.0 3.0 34 56
+ 0.7444 2 3 tcp 1040 ------- 1 0.0 3.0 34 56
- 0.7444 2 3 tcp 1040 ------- 1 0.0 3.0 34 56
r 0.74604 0 1 tcp 1040 ------- 1 0.0 3.0 37 61
+ 0.74604 1 2 tcp 1040 ------- 1 0.0 3.0 37 61
- 0.74604 1 2 tcp 1040 ------- 1 0.0 3.0 37 61
r 0.74712 1 0 ack 40 ------- 1 3.0 0.0 26 67
+ 0.74712 0 1 tcp 1040 ------- 1 0.0 3.0 46 78
- 0.74768 0 1 tcp 1040 ------- 1 0.0 3.0 40 66
r 0.74844 2 1 ack 40 ------- 1 3.0 0.0 28 71
+ 0.74844 1 0 ack 40 ------- 1 3.0 0.0 28 71
- 0.74844 1 0 ack 40 ------- 1 3.0 0.0 28 71
r 0.74976 3 2 ack 40 ------- 1 3.0 0.0 30 75
+ 0.74976 2 1 ack 40 ------- 1 3.0 0.0 30 75
- 0.74976 2 1 ack 40 ------- 1 3.0 0.0 30 75
r 0.75108 2 3 tcp 1040 ------- 1 0.0 3.0 32 53
+ 0.75108 3 2 ack 40 ------- 1 3.0 0.0 32 79
- 0.75108 3 2 ack 40 ------- 1 3.0 0.0 32 79
r 0.75272 1 2 tcp 1040 ------- 1 0.0 3.0 35 58
+ 0.75272 2 3 tcp 1040 ------- 1 0.0 3.0 35 58
- 0.75272 2 3 tcp 1040 ------- 1 0.0 3.0 35 58
r 0.75436 0 1 tcp 1040 ------- 1 0.0 3.0 38 62
+ 0.75436 1 2 tcp 1040 ------- 1 0.0 3.0 38 62
- 0.75436 1 2 tcp 1040 ------- 1 0.0 3.0 38 62
r 0.75544 1 0 ack 40 ------- 1 3.0 0.0 27 69
+ 0.75544 0 1 tcp 1040 ------- 1 0.0 3.0 47 80
- 0.756 0 1 tcp 1040 ------- 1 0.0 3.0 41 68
r 0.75676 2 1 ack 40 ------- 1 3.0 0.0 29 73
+ 0.75676 1 0 ack 40 ------- 1 3.0 0.0 29 73
- 0.75676 1 0 ack 40 ------- 1 3.0 0.0 29 73
r 0.75808 3 2 ack 40 ------- 1 3.0 0.0 31 77
+ 0.75808 2 1 ack 40 ------- 1 3.0 0.0 31 77
- 0.75808 2 1 ack 40 ------- 1 3.0 0.0 31 77
r 0.7594 2 3 tcp 1040 ------- 1 0.0 3.0 33 55
+ 0.7594 3 2 ack 40 ------- 1 3.0 0.0 33 81
- 0.7594 3 2 ack 40 ------- 1 3.0 0.0 33 81
r 0.76104 1 2 tcp 1040 ------- 1 0.0 3.0 36 59
+ 0.76104 2 3 tcp 1040 ------- 1 0.0 3.0 36 59
- 0.76104 2 3 tcp 1040 ------- 1 0.0 3.0 36 59
r 0.76268 0 1 tcp 1040 ------- 1 0.0 3.0 39 64
+ 0.76268 1 2 tcp 1040 ------- 1 0.0 3.0 39 64
- 0.76268 1 2 tcp 1040 ------- 1 0.0 3.0 39 64
r 0.76376 1 0 ack 40 ------- 1 3.0 0.0 28 71
+ 0.76376 0 1 tcp 1040 ------- 1 0.0 3.0 48 82
- 0.76432 0 1 tcp 1040 ------- 1 0.0 3.0 42 70
r 0.76508 2 1 ack 40 ------- 1 3.0 0.0 30 75
+ 0.76508 1 0 ack 40 ------- 1 3.0 0.0 30 75
- 0.76508 1 0 ack 40 ------- 1 3.0 0.0 30 75
r 0.7664 3 2 ack 40 ------- 1 3.0 0.0 32 79
+ 0.7664 2 1 ack 40 ------- 1 3.0 0.0 32 79
- 0.7664 2 1 ack 40 ------- 1 3.0 0.0 32 79
r 0.76772 2 3 tcp 1040 ------- 1 0.0 3.0 34 56
+ 0.76772 3 2 ack 40 ------- 1 3.0 0.0 34 83
- 0.76772 3 2 ack 40 ------- 1 3.0 0.0 34 83
r 0.76936 1 2 tcp 1040 ------- 1 0.0 3.0 37 61
+ 0.76936 2 3 tcp 1040 ------- 1 0.0 3.0 37 61
- 0.76936 2 3 tcp 1040 ------- 1 0.0 3.0 37 61
r 0.771 0 1 tcp 1040 ------- 1 0.0 3.0 40 66
+ 0.771 1 2 tcp 1040 ------- 1 0.0 3.0 40 66
- 0.771 1 2 tcp 1040 ------- 1 0.0 3.0 40 66
r 0.77208 1 0 ack 40 ------- 1 3.0 0.0 29 73
+ 0.77208 0 1 tcp 1040 ------- 1 0.0 3.0 49 84
- 0.77264 0 1 tcp 1040 ------- 1 0.0 3.0 43 72
r 0.7734 2 1 ack 40 ------- 1 3.0 0.0 31 77
+ 0.7734 1 0 ack 40 ------- 1 3.0 0.0 31 77