V -t * -v 1.0a5 -a 0
A -t * -n 1 -p 0 -o 0x7fffffff -c 30 -a 1
A -t * -h 1 -m 1073741823 -s 0
c -t * -i 1 -n Orange
c -t * -i 2 -n Green
n -t * -a 4 -s 4 -S UP -v circle -c black -i black
n -t * -a 0 -s 0 -S UP -v circle -c black -i black
n -t * -a 5 -s 5 -S UP -v circle -c black -i black
n -t * -a 1 -s 1 -S UP -v circle -c black -i black
n -t * -a 2 -s 2 -S UP -v circle -c black -i black
n -t * -a 3 -s 3 -S UP -v circle -c black -i black
l -t * -s 0 -d 1 -S UP -r 1000000 -D 0.014999999999999999 -c black -o right-down
l -t * -s 1 -d 2 -S UP -r 1000000 -D 0.014999999999999999 -c black -o down
l -t * -s 2 -d 3 -S UP -r 1000000 -D 0.014999999999999999 -c black -o left-down
l -t * -s 3 -d 4 -S UP -r 1000000 -D 0.014999999999999999 -c black -o left-up
l -t * -s 4 -d 5 -S UP -r 1000000 -D 0.014999999999999999 -c black -o up
l -t * -s 5 -d 0 -S UP -r 1000000 -D 0.014999999999999999 -c black -o right-up
q -t * -s 2 -d 3 -a 0.5
q -t * -s 3 -d 2 -a 0.5
+ -t 0.1 -s 0 -d 1 -p cbr -e 1000 -c 1 -i 0 -a 1 -x {0.0 3.0 0 ------- null}
- -t 0.1 -s 0 -d 1 -p cbr -e 1000 -c 1 -i 0 -a 1 -x {0.0 3.0 0 ------- null}
h -t 0.1 -s 0 -d 1 -p cbr -e 1000 -c 1 -i 0 -a 1 -x {0.0 3.0 -1 ------- null}
+ -t 0.11 -s 0 -d 1 -p cbr -e 1000 -c 1 -i 1 -a 1 -x {0.0 3.0 1 ------- null}
- -t 0.11 -s 0 -d 1 -p cbr -e 1000 -c 1 -i 1 -a 1 -x {0.0 3.0 1 ------- null}
h -t 0.11 -s 0 -d 1 -p cbr -e 1000 -c 1 -i 1 -a 1 -x {0.0 3.0 -1 ------- null}
+ -t 0.12 -s 0 -d 1 -p cbr -e 1000 -c 1 -i 2 -a 1 -x {0.0 3.0 2 ------- null}
- -t 0.12 -s 0 -d 1 -p cbr -e 1000 -c 1 -i 2 -a 1 -x {0.0 3.0 2 ------- null}
h -t 0.12 -s 0 -d 1 -p cbr -e 1000 -c 1 -i 2 -a 1 -x {0.0 3.0 -1 ------- null}
r -t 0.123 -s 0 -d 1 -p cbr -e 1000 -c 1 -i 0 -a 1 -x {0.0 3.0 0 ------- null}
+ -t 0.123 -s 1 -d 2 -p cbr -e 1000 -c 1 -i 0 -a 1 -x {0.0 3.0 0 ------- null}
- -t 0.123 -s 1 -d 2 -p cbr -e 1000 -c 1 -i 0 -a 1 -x {0.0 3.0 0 ------- null}
h -t 0.123 -s 1 -d 2 -p cbr -e 1000 -c 1 -i 0 -a 1 -x {0.0 3.0 -1 ------- null}
+ -t 0.13 -s 0 -d 1 -p cbr -e 1000 -c 1 -i 3 -a 1 -x {0.0 3.0 3 ------- null}
- -t 0.13 -s 0 -d 1 -p cbr -e 1000 -c 1 -i 3 -a 1 -x {0.0 3.0 3 ------- null}
h -t 0.13 -s 0 -d 1 -p cbr -e 1000 -c 1 -i 3 -a 1 -x {0.0 3.0 -1 ------- null}
r -t 0.133 -s 0 -d 1 -p cbr -e 1000 -c 1 -i 1 -a 1 -x {0.0 3.0 1 ------- null}
+ -t 0.133 -s 1 -d 2 -p cbr -e 1000 -c 1 -i 1 -a 1 -x {0.0 3.0 1 ------- null}
- -t 0.133 -s 1 -d 2 -p cbr -e 1000 -c 1 -i 1 -a 1 -x {0.0 3.0 1 ------- null}
h -t 0.133 -s 1 -d 2 -p cbr -e 1000 -c 1 -i 1 -a 1 -x {0.0 3.0 -1 ------- null}
+ -t 0.14 -s 0 -d 1 -p cbr -e 1000 -c 1 -i 4 -a 1 -x {0.0 3.0 4 ------- null}
- -t 0.14 -s 0 -d 1 -p cbr -e 1000 -c 1 -i 4 -a 1 -x {0.0 3.0 4 ------- null}
h -t 0.14 -s 0 -d 1 -p cbr -e 1000 -c 1 -i 4 -a 1 -x {0.0 3.0 -1 ------- null}
r -t 0.143 -s 0 -d 1 -p cbr -e 1000 -c 1 -i 2 -a 1 -x {0.0 3.0 2 ------- null}
+ -t 0.143 -s 1 -d 2 -p cbr -e 1000 -c 1 -i 2 -a 1 -x {0.0 3.0 2 ------- null}
- -t 0.143 -s 1 -d 2 -p cbr -e 1000 -c 1 -i 2 -a 1 -x {0.0 3.0 2 ------- null}
h -t 0.143 -s 1 -d 2 -p cbr -e 1000 -c 1 -i 2 -a 1 -x {0.0 3.0 -1 ------- null}
r -t 0.146 -s 1 -d 2 -p cbr -e 1000 -c 1 -i 0 -a 1 -x {0.0 3.0 0 ------- null}
+ -t 0.146 -s 2 -d 3 -p cbr -e 1000 -c 1 -i 0 -a 1 -x {0.0 3.0 0 ------- null}
- -t 0.146 -s 2 -d 3 -p cbr -e 1000 -c 1 -i 0 -a 1 -x {0.0 3.0 0 ------- null}
h -t 0.146 -s 2 -d 3 -p cbr -e 1000 -c 1 -i 0 -a 1 -x {0.0 3.0 -1 ------- null}
+ -t 0.15 -s 0 -d 1 -p cbr -e 1000 -c 1 -i 5 -a 1 -x {0.0 3.0 5 ------- null}
- -t 0.15 -s 0 -d 1 -p cbr -e 1000 -c 1 -i 5 -a 1 -x {0.0 3.0 5 ------- null}
h -t 0.15 -s 0 -d 1 -p cbr -e 1000 -c 1 -i 5 -a 1 -x {0.0 3.0 -1 ------- null}
r -t 0.153 -s 0 -d 1 -p cbr -e 1000 -c 1 -i 3 -a 1 -x {0.0 3.0 3 ------- null}
+ -t 0.153 -s 1 -d 2 -p cbr -e 1000 -c 1 -i 3 -a 1 -x {0.0 3.0 3 ------- null}
- -t 0.153 -s 1 -d 2 -p cbr -e 1000 -c 1 -i 3 -a 1 -x {0.0 3.0 3 ------- null}
h -t 0.153 -s 1 -d 2 -p cbr -e 1000 -c 1 -i 3 -a 1 -x {0.0 3.0 -1 ------- null}
r -t 0.156 -s 1 -d 2 -p cbr -e 1000 -c 1 -i 1 -a 1 -x {0.0 3.0 1 ------- null}
+ -t 0.156 -s 2 -d 3 -p cbr -e 1000 -c 1 -i 1 -a 1 -x {0.0 3.0 1 ------- null}
- -t 0.156 -s 2 -d 3 -p cbr -e 1000 -c 1 -i 1 -a 1 -x {0.0 3.0 1 ------- null}
h -t 0.156 -s 2 -d 3 -p cbr -e 1000 -c 1 -i 1 -a 1 -x {0.0 3.0 -1 ------- null}
+ -t 0.16 -s 0 -d 1 -p cbr -e 1000 -c 1 -i 6 -a 1 -x {0.0 3.0 6 ------- null}
- -t 0.16 -s 0 -d 1 -p cbr -e 1000 -c 1 -i 6 -a 1 -x {0.0 3.0 6 ------- null}
h -t 0.16 -s 0 -d 1 -p cbr -e 1000 -c 1 -i 6 -a 1 -x {0.0 3.0 -1 ------- null}
r -t 0.163 -s 0 -d 1 -p cbr -e 1000 -c 1 -i 4 -a 1 -x {0.0 3.0 4 ------- null}
+ -t 0.163 -s 1 -d 2 -p cbr -e 1000 -c 1 -i 4 -a 1 -x {0.0 3.0 4 ------- null}
- -t 0.163 -s 1 -d 2 -p cbr -e 1000 -c 1 -i 4 -a 1 -x {0.0 3.0 4 ------- null}
h -t 0.163 -s 1 -d 2 -p cbr -e 1000 -c 1 -i 4 -a 1 -x {0.0 3.0 -1 ------- null}
r -t 0.166 -s 1 -d 2 -p cbr -e 1000 -c 1 -i 2 -a 1 -x {0.0 3.0 2 ------- null}
+ -t 0.166 -s 2 -d 3 -p cbr -e 1000 -c 1 -i 2 -a 1 -x {0.0 3.0 2 ------- null}
- -t 0.166 -s 2 -d 3 -p cbr -e 1000 -c 1 -i 2 -a 1 -x {0.0 3.0 2 ------- null}
h -t 0.166 -s 2 -d 3 -p cbr -e 1000 -c 1 -i 2 -a 1 -x {0.0 3.0 -1 ------- null}
r -t 0.169 -s 2 -d 3 -p cbr -e 1000 -c 1 -i 0 -a 1 -x {0.0 3.0 0 ------- null}
+ -t 0.17 -s 0 -d 1 -p cbr -e 1000 -c 1 -i 7 -a 1 -x {0.0 3.0 7 ------- null}
- -t 0.17 -s 0 -d 1 -p cbr -e 1000 -c 1 -i 7 -a 1 -x {0.0 3.0 7 ------- null}
h -t 0.17 -s 0 -d 1 -p cbr -e 1000 -c 1 -i 7 -a 1 -x {0.0 3.0 -1 ------- null}
r -t 0.173 -s 0 -d 1 -p cbr -e 1000 -c 1 -i 5 -a 1 -x {0.0 3.0 5 ------- null}
+ -t 0.173 -s 1 -d 2 -p cbr -e 1000 -c 1 -i 5 -a 1 -x {0.0 3.0 5 ------- null}
- -t 0.173 -s 1 -d 2 -p cbr -e 1000 -c 1 -i 5 -a 1 -x {0.0 3.0 5 ------- null}
h -t 0.173 -s 1 -d 2 -p cbr -e 1000 -c 1 -i 5 -a 1 -x {0.0 3.0 -1 ------- null}
r -t 0.176 -s 1 -d 2 -p cbr -e 1000 -c 1 -i 3 -a 1 -x {0.0 3.0 3 ------- null}
+ -t 0.176 -s 2 -d 3 -p cbr -e 1000 -c 1 -i 3 -a 1 -x {0.0 3.0 3 ------- null}
- -t 0.176 -s 2 -d 3 -p cbr -e 1000 -c 1 -i 3 -a 1 -x {0.0 3.0 3 ------- null}
h -t 0.176 -s 2 -d 3 -p cbr -e 1000 -c 1 -i 3 -a 1 -x {0.0 3.0 -1 ------- null}
r -t 0.179 -s 2 -d 3 -p cbr -e 1000 -c 1 -i 1 -a 1 -x {0.0 3.0 1 ------- null}
+ -t 0.18 -s 0 -d 1 -p cbr -e 1000 -c 1 -i 8 -a 1 -x {0.0 3.0 8 ------- null}
- -t 0.18 -s 0 -d 1 -p cbr -e 1000 -c 1 -i 8 -a 1 -x {0.0 3.0 8 ------- null}
h -t 0.18 -s 0 -d 1 -p cbr -e 1000 -c 1 -i 8 -a 1 -x {0.0 3.0 -1 ------- null}
r -t 0.183 -s 0 -d 1 -p cbr -e 1000 -c 1 -i 6 -a 1 -x {0.0 3.0 6 ------- null}
+ -t 0.183 -s 1 -d 2 -p cbr -e 1000 -c 1 -i 6 -a 1 -x {0.0 3.0 6 ------- null}
- -t 0.183 -s 1 -d 2 -p cbr -e 1000 -c 1 -i 6 -a 1 -x {0.0 3.0 6 ------- null}
h -t 0.183 -s 1 -d 2 -p cbr -e 1000 -c 1 -i 6 -a 1 -x {0.0 3.0 -1 ------- null}
r -t 0.186 -s 1 -d 2 -p cbr -e 1000 -c 1 -i 4 -a 1 -x {0.0 3.0 4 ------- null}
+ -t 0.186 -s 2 -d 3 -p cbr -e 1000 -c 1 -i 4 -a 1 -x {0.0 3.0 4 ------- null}
- -t 0.186 -s 2 -d 3 -p cbr -e 1000 -c 1 -i 4 -a 1 -x {0.0 3.0 4 ------- null}
h -t 0.186 -s 2 -d 3 -p cbr -e 1000 -c 1 -i 4 -a 1 -x {0.0 3.0 -1 ------- null}
r -t 0.189 -s 2 -d 3 -p cbr -e 1000 -c 1 -i 2 -a 1 -x {0.0 3.0 2 ------- null}
+ -t 0.19 -s 0 -d 1 -p cbr -e 1000 -c 1 -i 9 -a 1 -x {0.0 3.0 9 ------- null}
- -t 0.19 -s 0 -d 1 -p cbr -e 1000 -c 1 -i 9 -a 1 -x {0.0 3.0 9 ------- null}
h -t 0.19 -s 0 -d 1 -p cbr -e 1000 -c 1 -i 9 -a 1 -x {0.0 3.0 -1 ------- null}
r -t 0.193 -s 0 -d 1 -p cbr -e 1000 -c 1 -i 7 -a 1 -x {0.0 3.0 7 ------- null}
+ -t 0.193 -s 1 -d 2 -p cbr -e 1000 -c 1 -i 7 -a 1 -x {0.0 3.0 7 ------- null}
- -t 0.193 -s 1 -d 2 -p cbr -e 1000 -c 1 -i 7 -a 1 -x {0.0 3.0 7 ------- null}
h -t 0.193 -s 1 -d 2 -p cbr -e 1000 -c 1 -i 7 -a 1 -x {0.0 3.0 -1 ------- null}
r -t 0.196 -s 1 -d 2 -p cbr -e 1000 -c 1 -i 5 -a 1 -x {0.0 3.0 5 ------- null}
+ -t 0.196 -s 2 -d 3 -p cbr -e 1000 -c 1 -i 5 -a 1 -x {0.0 3.0 5 ------- null}
- -t 0.196 -s 2 -d 3 -p cbr -e 1000 -c 1 -i 5 -a 1 -x {0.0 3.0 5 ------- null}
h -t 0.196 -s 2 -d 3 -p cbr -e 1000 -c 1 -i 5 -a 1 -x {0.0 3.0 -1 ------- null}
r -t 0.199 -s 2 -d 3 -p cbr -e 1000 -c 1 -i 3 -a 1 -x {0.0 3.0 3 ------- null}
+ -t 0.2 -s 0 -d 1 -p cbr -e 1000 -c 1 -i 10 -a 1 -x {0.0 3.0 10 ------- null}
- -t 0.2 -s 0 -d 1 -p cbr -e 1000 -c 1 -i 10 -a 1 -x {0.0 3.0 10 ------- null}
h -t 0.2 -s 0 -d 1 -p cbr -e 1000 -c 1 -i 10 -a 1 -x {0.0 3.0 -1 ------- null}
r -t 0.203 -s 0 -d 1 -p cbr -e 1000 -c 1 -i 8 -a 1 -x {0.0 3.0 8 ------- null}
+ -t 0.203 -s 1 -d 2 -p cbr -e 1000 -c 1 -i 8 -a 1 -x {0.0 3.0 8 ------- null}
- -t 0.203 -s 1 -d 2 -p cbr -e 1000 -c 1 -i 8 -a 1 -x {0.0 3.0 8 ------- null}
h -t 0.203 -s 1 -d 2 -p cbr -e 1000 -c 1 -i 8 -a 1 -x {0.0 3.0 -1 ------- null}
r -t 0.206 -s 1 -d 2 -p cbr -e 1000 -c 1 -i 6 -a 1 -x {0.0 3.0 6 ------- null}
+ -t 0.206 -s 2 -d 3 -p cbr -e 1000 -c 1 -i 6 -a 1 -x {0.0 3.0 6 ------- null}
- -t 0.206 -s 2 -d 3 -p cbr -e 1000 -c 1 -i 6 -a 1 -x {0.0 3.0 6 ------- null}
h -t 0.206 -s 2 -d 3 -p cbr -e 1000 -c 1 -i 6 -a 1 -x {0.0 3.0 -1 ------- null}
r -t 0.209 -s 2 -d 3 -p cbr -e 1000 -c 1 -i 4 -a 1 -x {0.0 3.0 4 ------- null}
+ -t 0.21 -s 0 -d 1 -p cbr -e 1000 -c 1 -i 11 -a 1 -x {0.0 3.0 11 ------- null}
- -t 0.21 -s 0 -d 1 -p cbr -e 1000 -c 1 -i 11 -a 1 -x {0.0 3.0 11 ------- null}
h -t 0.21 -s 0 -d 1 -p cbr -e 1000 -c 1 -i 11 -a 1 -x {0.0 3.0 -1 ------- null}
r -t 0.213 -s 0 -d 1 -p cbr -e 1000 -c 1 -i 9 -a 1 -x {0.0 3.0 9 ------- null}
+ -t 0.213 -s 1 -d 2 -p cbr -e 1000 -c 1 -i 9 -a 1 -x {0.0 3.0 9 ------- null}
- -t 0.213 -s 1 -d 2 -p cbr -e 1000 -c 1 -i 9 -a 1 -x {0.0 3.0 9 ------- null}
h -t 0.213 -s 1 -d 2 -p cbr -e 1000 -c 1 -i 9 -a 1 -x {0.0 3.0 -1 ------- null}
r -t 0.216 -s 1 -d 2 -p cbr -e 1000 -c 1 -i 7 -a 1 -x {0.0 3.0 7 ------- null}
+ -t 0.216 -s 2 -d 3 -p cbr -e 1000 -c 1 -i 7 -a 1 -x {0.0 3.0 7 ------- null}
- -t 0.216 -s 2 -d 3 -p cbr -e 1000 -c 1 -i 7 -a 1 -x {0.0 3.0 7 ------- null}
h -t 0.216 -s 2 -d 3 -p cbr -e 1000 -c 1 -i 7 -a 1 -x {0.0 3.0 -1 ------- null}
r -t 0.219 -s 2 -d 3 -p cbr -e 1000 -c 1 -i 5 -a 1 -x {0.0 3.0 5 ------- null}
+ -t 0.22 -s 0 -d 1 -p cbr -e 1000 -c 1 -i 12 -a 1 -x {0.0 3.0 12 ------- null}
- -t 0.22 -s 0 -d 1 -p cbr -e 1000 -c 1 -i 12 -a 1 -x {0.0 3.0 12 ------- null}
h -t 0.22 -s 0 -d 1 -p cbr -e 1000 -c 1 -i 12 -a 1 -x {0.0 3.0 -1 ------- null}
r -t 0.223 -s 0 -d 1 -p cbr -e 1000 -c 1 -i 10 -a 1 -x {0.0 3.0 10 ------- null}
+ -t 0.223 -s 1 -d 2 -p cbr -e 1000 -c 1 -i 10 -a 1 -x {0.0 3.0 10 ------- null}
- -t 0.223 -s 1 -d 2 -p cbr -e 1000 -c 1 -i 10 -a 1 -x {0.0 3.0 10 ------- null}
h -t 0.223 -s 1 -d 2 -p cbr -e 1000 -c 1 -i 10 -a 1 -x {0.0 3.0 -1 ------- null}
r -t 0.226 -s 1 -d 2 -p cbr -e 1000 -c 1 -i 8 -a 1 -x {0.0 3.0 8 ------- null}
+ -t 0.226 -s 2 -d 3 -p cbr -e 1000 -c 1 -i 8 -a 1 -x {0.0 3.0 8 ------- null}
- -t 0.226 -s 2 -d 3 -p cbr -e 1000 -c 1 -i 8 -a 1 -x {0.0 3.0 8 ------- null}
h -t 0.226 -s 2 -d 3 -p cbr -e 1000 -c 1 -i 8 -a 1 -x {0.0 3.0 -1 ------- null}
r -t 0.229 -s 2 -d 3 -p cbr -e 1000 -c 1 -i 6 -a 1 -x {0.0 3.0 6 ------- null}
+ -t 0.23 -s 0 -d 1 -p cbr -e 1000 -c 1 -i 13 -a 1 -x {0.0 3.0 13 ------- null}
- -t 0.23 -s 0 -d 1 -p cbr -e 1000 -c 1 -i 13 -a 1 -x {0.0 3.0 13 ------- null}
h -t 0.23 -s 0 -d 1 -p cbr -e 1000 -c 1 -i 13 -a 1 -x {0.0 3.0 -1 ------- null}
r -t 0.233 -s 0 -d 1 -p cbr -e 1000 -c 1 -i 11 -a 1 -x {0.0 3.0 11 ------- null}
+ -t 0.233 -s 1 -d 2 -p cbr -e 1000 -c 1 -i 11 -a 1 -x {0.0 3.0 11 ------- null}
- -t 0.233 -s 1 -d 2 -p cbr -e 1000 -c 1 -i 11 -a 1 -x {0.0 3.0 11 ------- null}
h -t 0.233 -s 1 -d 2 -p cbr -e 1000 -c 1 -i 11 -a 1 -x {0.0 3.0 -1 ------- null}
r -t 0.236 -s 1 -d 2 -p cbr -e 1000 -c 1 -i 9 -a 1 -x {0.0 3.0 9 ------- null}
+ -t 0.236 -s 2 -d 3 -p cbr -e 1000 -c 1 -i 9 -a 1 -x {0.0 3.0 9 ------- null}
- -t 0.236 -s 2 -d 3 -p cbr -e 1000 -c 1 -i 9 -a 1 -x {0.0 3.0 9 ------- null}
h -t 0.236 -s 2 -d 3 -p cbr -e 1000 -c 1 -i 9 -a 1 -x {0.0 3.0 -1 ------- null}
r -t 0.239 -s 2 -d 3 -p cbr -e 1000 -c 1 -i 7 -a 1 -x {0.0 3.0 7 ------- null}
+ -t 0.24 -s 0 -d 1 -p cbr -e 1000 -c 1 -i 14 -a 1 -x {0.0 3.0 14 ------- null}
- -t 0.24 -s 0 -d 1 -p cbr -e 1000 -c 1 -i 14 -a 1 -x {0.0 3.0 14 ------- null}
h -t 0.24 -s 0 -d 1 -p cbr -e 1000 -c 1 -i 14 -a 1 -x {0.0 3.0 -1 ------- null}
r -t 0.243 -s 0 -d 1 -p cbr -e 1000 -c 1 -i 12 -a 1 -x {0.0 3.0 12 ------- null}
+ -t 0.243 -s 1 -d 2 -p cbr -e 1000 -c 1 -i 12 -a 1 -x {0.0 3.0 12 ------- null}
- -t 0.243 -s 1 -d 2 -p cbr -e 1000 -c 1 -i 12 -a 1 -x {0.0 3.0 12 ------- null}
h -t 0.243 -s 1 -d 2 -p cbr -e 1000 -c 1 -i 12 -a 1 -x {0.0 3.0 -1 ------- null}
r -t 0.246 -s 1 -d 2 -p cbr -e 1000 -c 1 -i 10 -a 1 -x {0.0 3.0 10 ------- null}
+ -t 0.246 -s 2 -d 3 -p cbr -e 1000 -c 1 -i 10 -a 1 -x {0.0 3.0 10 ------- null}
- -t 0.246 -s 2 -d 3 -p cbr -e 1000 -c 1 -i 10 -a 1 -x {0.0 3.0 10 ------- null}
h -t 0.246 -s 2 -d 3 -p cbr -e 1000 -c 1 -i 10 -a 1 -x {0.0 3.0 -1 ------- null}
r -t 0.249 -s 2 -d 3 -p cbr -e 1000 -c 1 -i 8 -a 1 -x {0.0 3.0 8 ------- null}
+ -t 0.25 -s 0 -d 1 -p cbr -e 1000 -c 1 -i 15 -a 1 -x {0.0 3.0 15 ------- null}
- -t 0.25 -s 0 -d 1 -p cbr -e 1000 -c 1 -i 15 -a 1 -x {0.0 3.0 15 ------- null}
h -t 0.25 -s 0 -d 1 -p cbr -e 1000 -c 1 -i 15 -a 1 -x {0.0 3.0 -1 ------- null}
r -t 0.253 -s 0 -d 1 -p cbr -e 1000 -c 1 -i 13 -a 1 -x {0.0 3.0 13 ------- null}
+ -t 0.253 -s 1 -d 2 -p cbr -e 1000 -c 1 -i 13 -a 1 -x {0.0 3.0 13 ------- null}
- -t 0.253 -s 1 -d 2 -p cbr -e 1000 -c 1 -i 13 -a 1 -x {0.0 3.0 13 ------- null}
h -t 0.253 -s 1 -d 2 -p cbr -e 1000 -c 1 -i 13 -a 1 -x {0.0 3.0 -1 ------- null}
r -t 0.256 -s 1 -d 2 -p cbr -e 1000 -c 1 -i 11 -a 1 -x {0.0 3.0 11 ------- null}
+ -t 0.256 -s 2 -d 3 -p cbr -e 1000 -c 1 -i 11 -a 1 -x {0.0 3.0 11 ------- null}
- -t 0.256 -s 2 -d 3 -p cbr -e 1000 -c 1 -i 11 -a 1 -x {0.0 3.0 11 ------- null}
h -t 0.256 -s 2 -d 3 -p cbr -e 1000 -c 1 -i 11 -a 1 -x {0.0 3.0 -1 ------- null}
r -t 0.259 -s 2 -d 3 -p cbr -e 1000 -c 1 -i 9 -a 1 -x {0.0 3.0 9 ------- null}
+ -t 0.26 -s 0 -d 1 -p cbr -e 1000 -c 1 -i 16 -a 1 -x {0.0 3.0 16 ------- null}
- -t 0.26 -s 0 -d 1 -p cbr -e 1000 -c 1 -i 16 -a 1 -x {0.0 3.0 16 ------- null}
h -t 0.26 -s 0 -d 1 -p cbr -e 1000 -c 1 -i 16 -a 1 -x {0.0 3.0 -1 ------- null}
r -t 0.263 -s 0 -d 1 -p cbr -e 1000 -c 1 -i 14 -a 1 -x {0.0 3.0 14 ------- null}
+ -t 0.263 -s 1 -d 2 -p cbr -e 1000 -c 1 -i 14 -a 1 -x {0.0 3.0 14 ------- null}
- -t 0.263 -s 1 -d 2 -p cbr -e 1000 -c 1 -i 14 -a 1 -x {0.0 3.0 14 ------- null}
h -t 0.263 -s 1 -d 2 -p cbr -e 1000 -c 1 -i 14 -a 1 -x {0.0 3.0 -1 ------- null}
r -t 0.266 -s 1 -d 2 -p cbr -e 1000 -c 1 -i 12 -a 1 -x {0.0 3.0 12 ------- null}
+ -t 0.266 -s 2 -d 3 -p cbr -e 1000 -c 1 -i 12 -a 1 -x {0.0 3.0 12 ------- null}
- -t 0.266 -s 2 -d 3 -p cbr -e 1000 -c 1 -i 12 -a 1 -x {0.0 3.0 12 ------- null}
h -t 0.266 -s 2 -d 3 -p cbr -e 1000 -c 1 -i 12 -a 1 -x {0.0 3.0 -1 ------- null}
r -t 0.269 -s 2 -d 3 -p cbr -e 1000 -c 1 -i 10 -a 1 -x {0.0 3.0 10 ------- null}
+ -t 0.27 -s 0 -d 1 -p cbr -e 1000 -c 1 -i 17 -a 1 -x {0.0 3.0 17 ------- null}
- -t 0.27 -s 0 -d 1 -p cbr -e 1000 -c 1 -i 17 -a 1 -x {0.0 3.0 17 ------- null}
h -t 0.27 -s 0 -d 1 -p cbr -e 1000 -c 1 -i 17 -a 1 -x {0.0 3.0 -1 ------- null}
r -t 0.273 -s 0 -d 1 -p cbr -e 1000 -c 1 -i 15 -a 1 -x {0.0 3.0 15 ------- null}
+ -t 0.273 -s 1 -d 2 -p cbr -e 1000 -c 1 -i 15 -a 1 -x {0.0 3.0 15 ------- null}
- -t 0.273 -s 1 -d 2 -p cbr -e 1000 -c 1 -i 15 -a 1 -x {0.0 3.0 15 ------- null}
h -t 0.273 -s 1 -d 2 -p cbr -e 1000 -c 1 -i 15 -a 1 -x {0.0 3.0 -1 ------- null}
r -t 0.276 -s 1 -d 2 -p cbr -e 1000 -c 1 -i 13 -a 1 -x {0.0 3.0 13 ------- null}
+ -t 0.276 -s 2 -d 3 -p cbr -e 1000 -c 1 -i 13 -a 1 -x {0.0 3.0 13 ------- null}
- -t 0.276 -s 2 -d 3 -p cbr -e 1000 -c 1 -i 13 -a 1 -x {0.0 3.0 13 ------- null}
h -t 0.276 -s 2 -d 3 -p cbr -e 1000 -c 1 -i 13 -a 1 -x {0.0 3.0 -1 ------- null}
r -t 0.279 -s 2 -d 3 -p cbr -e 1000 -c 1 -i 11 -a 1 -x {0.0 3.0 11 ------- null}
+ -t 0.28 -s 0 -d 1 -p cbr -e 1000 -c 1 -i 18 -a 1 -x {0.0 3.0 18 ------- null}
- -t 0.28 -s 0 -d 1 -p cbr -e 1000 -c 1 -i 18 -a 1 -x {0.0 3.0 18 ------- null}
h -t 0.28 -s 0 -d 1 -p cbr -e 1000 -c 1 -i 18 -a 1 -x {0.0 3.0 -1 ------- null}
r -t 0.283 -s 0 -d 1 -p cbr -e 1000 -c 1 -i 16 -a 1 -x {0.0 3.0 16 ------- null}
+ -t 0.283 -s 1 -d 2 -p cbr -e 1000 -c 1 -i 16 -a 1 -x {0.0 3.0 16 ------- null}
- -t 0.283 -s 1 -d 2 -p cbr -e 1000 -c 1 -i 16 -a 1 -x {0.0 3.0 16 ------- null}
h -t 0.283 -s 1 -d 2 -p cbr -e 1000 -c 1 -i 16 -a 1 -x {0.0 3.0 -1 ------- null}
r -t 0.286 -s 1 -d 2 -p cbr -e 1000 -c 1 -i 14 -a 1 -x {0.0 3.0 14 ------- null}
+ -t 0.286 -s 2 -d 3 -p cbr -e 1000 -c 1 -i 14 -a 1 -x {0.0 3.0 14 ------- null}
- -t 0.286 -s 2 -d 3 -p cbr -e 1000 -c 1 -i 14 -a 1 -x {0.0 3.0 14 ------- null}
h -t 0.286 -s 2 -d 3 -p cbr -e 1000 -c 1 -i 14 -a 1 -x {0.0 3.0 -1 ------- null}
r -t 0.289 -s 2 -d 3 -p cbr -e 1000 -c 1 -i 12 -a 1 -x {0.0 3.0 12 ------- null}
+ -t 0.29 -s 0 -d 1 -p cbr -e 1000 -c 1 -i 19 -a 1 -x {0.0 3.0 19 ------- null}
- -t 0.29 -s 0 -d 1 -p cbr -e 1000 -c 1 -i 19 -a 1 -x {0.0 3.0 19 ------- null}
h -t 0.29 -s 0 -d 1 -p cbr -e 1000 -c 1 -i 19 -a 1 -x {0.0 3.0 -1 ------- null}
r -t 0.293 -s 0 -d 1 -p cbr -e 1000 -c 1 -i 17 -a 1 -x {0.0 3.0 17 ------- null}
+ -t 0.293 -s 1 -d 2 -p cbr -e 1000 -c 1 -i 17 -a 1 -x {0.0 3.0 17 ------- null}
- -t 0.293 -s 1 -d 2 -p cbr -e 1000 -c 1 -i 17 -a 1 -x {0.0 3.0 17 ------- null}
h -t 0.293 -s 1 -d 2 -p cbr -e 1000 -c 1 -i 17 -a 1 -x {0.0 3.0 -1 ------- null}
r -t 0.296 -s 1 -d 2 -p cbr -e 1000 -c 1 -i 15 -a 1 -x {0.0 3.0 15 ------- null}
+ -t 0.296 -s 2 -d 3 -p cbr -e 1000 -c 1 -i 15 -a 1 -x {0.0 3.0 15 ------- null}
- -t 0.296 -s 2 -d 3 -p cbr -e 1000 -c 1 -i 15 -a 1 -x {0.0 3.0 15 ------- null}
h -t 0.296 -s 2 -d 3 -p cbr -e 1000 -c 1 -i 15 -a 1 -x {0.0 3.0 -1 ------- null}
r -t 0.299 -s 2 -d 3 -p cbr -e 1000 -c 1 -i 13 -a 1 -x {0.0 3.0 13 ------- null}
+ -t 0.3 -s 0 -d 1 -p cbr -e 1000 -c 1 -i 20 -a 1 -x {0.0 3.0 20 ------- null}
- -t 0.3 -s 0 -d 1 -p cbr -e 1000 -c 1 -i 20 -a 1 -x {0.0 3.0 20 ------- null}
h -t 0.3 -s 0 -d 1 -p cbr -e 1000 -c 1 -i 20 -a 1 -x {0.0 3.0 -1 ------- null}
r -t 0.303 -s 0 -d 1 -p cbr -e 1000 -c 1 -i 18 -a 1 -x {0.0 3.0 18 ------- null}
+ -t 0.303 -s 1 -d 2 -p cbr -e 1000 -c 1 -i 18 -a 1 -x {0.0 3.0 18 ------- null}
- -t 0.303 -s 1 -d 2 -p cbr -e 1000 -c 1 -i 18 -a 1 -x {0.0 3.0 18 ------- null}
h -t 0.303 -s 1 -d 2 -p cbr -e 1000 -c 1 -i 18 -a 1 -x {0.0 3.0 -1 ------- null}
r -t 0.306 -s 1 -d 2 -p cbr -e 1000 -c 1 -i 16 -a 1 -x {0.0 3.0 16 ------- null}
+ -t 0.306 -s 2 -d 3 -p cbr -e 1000 -c 1 -i 16 -a 1 -x {0.0 3.0 16 ------- null}
- -t 0.306 -s 2 -d 3 -p cbr -e 1000 -c 1 -i 16 -a 1 -x {0.0 3.0 16 ------- null}
h -t 0.306 -s 2 -d 3 -p cbr -e 1000 -c 1 -i 16 -a 1 -x {0.0 3.0 -1 ------- null}
r -t 0.309 -s 2 -d 3 -p cbr -e 1000 -c 1 -i 14 -a 1 -x {0.0 3.0 14 ------- null}
+ -t 0.31 -s 0 -d 1 -p cbr -e 1000 -c 1 -i 21 -a 1 -x {0.0 3.0 21 ------- null}
- -t 0.31 -s 0 -d 1 -p cbr -e 1000 -c 1 -i 21 -a 1 -x {0.0 3.0 21 ------- null}
h -t 0.31 -s 0 -d 1 -p cbr -e 1000 -c 1 -i 21 -a 1 -x {0.0 3.0 -1 ------- null}
r -t 0.313 -s 0 -d 1 -p cbr -e 1000 -c 1 -i 19 -a 1 -x {0.0 3.0 19 ------- null}
+ -t 0.313 -s 1 -d 2 -p cbr -e 1000 -c 1 -i 19 -a 1 -x {0.0 3.0 19 ------- null}
- -t 0.313 -s 1 -d 2 -p cbr -e 1000 -c 1 -i 19 -a 1 -x {0.0 3.0 19 ------- null}
h -t 0.313 -s 1 -d 2 -p cbr -e 1000 -c 1 -i 19 -a 1 -x {0.0 3.0 -1 ------- null}
r -t 0.316 -s 1 -d 2 -p cbr -e 1000 -c 1 -i 17 -a 1 -x {0.0 3.0 17 ------- null}
+ -t 0.316 -s 2 -d 3 -p cbr -e 1000 -c 1 -i 17 -a 1 -x {0.0 3.0 17 ------- null}
- -t 0.316 -s 2 -d 3 -p cbr -e 1000 -c 1 -i 17 -a 1 -x {0.0 3.0 17 ------- null}
h -t 0.316 -s 2 -d 3 -p cbr -e 1000 -c 1 -i 17 -a 1 -x {0.0 3.0 -1 ------- null}
r -t 0.319 -s 2 -d 3 -p cbr -e 1000 -c 1 -i 15 -a 1 -x {0.0 3.0 15 ------- null}
+ -t 0.32 -s 0 -d 1 -p cbr -e 1000 -c 1 -i 22 -a 1 -x {0.0 3.0 22 ------- null}
- -t 0.32 -s 0 -d 1 -p cbr -e 1000 -c 1 -i 22 -a 1 -x {0.0 3.0 22 ------- null}
h -t 0.32 -s 0 -d 1 -p cbr -e 1000 -c 1 -i 22 -a 1 -x {0.0 3.0 -1 ------- null}
r -t 0.323 -s 0 -d 1 -p cbr -e 1000 -c 1 -i 20 -a 1 -x {0.0 3.0 20 ------- null}
+ -t 0.323 -s 1 -d 2 -p cbr -e 1000 -c 1 -i 20 -a 1 -x {0.0 3.0 20 ------- null}
- -t 0.323 -s 1 -d 2 -p cbr -e 1000 -c 1 -i 20 -a 1 -x {0.0 3.0 20 ------- null}
h -t 0.323 -s 1 -d 2 -p cbr -e 1000 -c 1 -i 20 -a 1 -x {0.0 3.0 -1 ------- null}
r -t 0.326 -s 1 -d 2 -p cbr -e 1000 -c 1 -i 18 -a 1 -x {0.0 3.0 18 ------- null}
+ -t 0.326 -s 2 -d 3 -p cbr -e 1000 -c 1 -i 18 -a 1 -x {0.0 3.0 18 ------- null}
- -t 0.326 -s 2 -d 3 -p cbr -e 1000 -c 1 -i 18 -a 1 -x {0.0 3.0 18 ------- null}
h -t 0.326 -s 2 -d 3 -p cbr -e 1000 -c 1 -i 18 -a 1 -x {0.0 3.0 -1 ------- null}
r -t 0.329 -s 2 -d 3 -p cbr -e 1000 -c 1 -i 16 -a 1 -x {0.0 3.0 16 ------- null}
+ -t 0.33 -s 0 -d 1 -p cbr -e 1000 -c 1 -i 23 -a 1 -x {0.0 3.0 23 ------- null}
- -t 0.33 -s 0 -d 1 -p cbr -e 1000 -c 1 -i 23 -a 1 -x {0.0 3.0 23 ------- null}
h -t 0.33 -s 0 -d 1 -p cbr -e 1000 -c 1 -i 23 -a 1 -x {0.0 3.0 -1 ------- null}
r -t 0.333 -s 0 -d 1 -p cbr -e 1000 -c 1 -i 21 -a 1 -x {0.0 3.0 21 ------- null}
+ -t 0.333 -s 1 -d 2 -p cbr -e 1000 -c 1 -i 21 -a 1 -x {0.0 3.0 21 ------- null}
- -t 0.333 -s 1 -d 2 -p cbr -e 1000 -c 1 -i 21 -a 1 -x {0.0 3.0 21 ------- null}
h -t 0.333 -s 1 -d 2 -p cbr -e 1000 -c 1 -i 21 -a 1 -x {0.0 3.0 -1 ------- null}
r -t 0.336 -s 1 -d 2 -p cbr -e 1000 -c 1 -i 19 -a 1 -x {0.0 3.0 19 ------- null}
+ -t 0.336 -s 2 -d 3 -p cbr -e 1000 -c 1 -i 19 -a 1 -x {0.0 3.0 19 ------- null}
- -t 0.336 -s 2 -d 3 -p cbr -e 1000 -c 1 -i 19 -a 1 -x {0.0 3.0 19 ------- null}
h -t 0.336 -s 2 -d 3 -p cbr -e 1000 -c 1 -i 19 -a 1 -x {0.0 3.0 -1 ------- null}
r -t 0.339 -s 2 -d 3 -p cbr -e 1000 -c 1 -i 17 -a 1 -x {0.0 3.0 17 ------- null}
+ -t 0.34 -s 0 -d 1 -p cbr -e 1000 -c 1 -i 24 -a 1 -x {0.0 3.0 24 ------- null}
- -t 0.34 -s 0 -d 1 -p cbr -e 1000 -c 1 -i 24 -a 1 -x {0.0 3.0 24 ------- null}
h -t 0.34 -s 0 -d 1 -p cbr -e 1000 -c 1 -i 24 -a 1 -x {0.0 3.0 -1 ------- null}
r -t 0.343 -s 0 -d 1 -p cbr -e 1000 -c 1 -i 22 -a 1 -x {0.0 3.0 22 ------- null}
+ -t 0.343 -s 1 -d 2 -p cbr -e 1000 -c 1 -i 22 -a 1 -x {0.0 3.0 22 ------- null}
- -t 0.343 -s 1 -d 2 -p cbr -e 1000 -c 1 -i 22 -a 1 -x {0.0 3.0 22 ------- null}
h -t 0.343 -s 1 -d 2 -p cbr -e 1000 -c 1 -i 22 -a 1 -x {0.0 3.0 -1 ------- null}
r -t 0.346 -s 1 -d 2 -p cbr -e 1000 -c 1 -i 20 -a 1 -x {0.0 3.0 20 ------- null}
+ -t 0.346 -s 2 -d 3 -p cbr -e 1000 -c 1 -i 20 -a 1 -x {0.0 3.0 20 ------- null}
- -t 0.346 -s 2 -d 3 -p cbr -e 1000 -c 1 -i 20 -a 1 -x {0.0 3.0 20 ------- null}
h -t 0.346 -s 2 -d 3 -p cbr -e 1000 -c 1 -i 20 -a 1 -x {0.0 3.0 -1 ------- null}
r -t 0.349 -s 2 -d 3 -p cbr -e 1000 -c 1 -i 18 -a 1 -x {0.0 3.0 18 ------- null}
+ -t 0.35 -s 0 -d 1 -p cbr -e 1000 -c 1 -i 25 -a 1 -x {0.0 3.0 25 ------- null}
- -t 0.35 -s 0 -d 1 -p cbr -e 1000 -c 1 -i 25 -a 1 -x {0.0 3.0 25 ------- null}
h -t 0.35 -s 0 -d 1 -p cbr -e 1000 -c 1 -i 25 -a 1 -x {0.0 3.0 -1 ------- null}
r -t 0.353 -s 0 -d 1 -p cbr -e 1000 -c 1 -i 23 -a 1 -x {0.0 3.0 23 ------- null}
+ -t 0.353 -s 1 -d 2 -p cbr -e 1000 -c 1 -i 23 -a 1 -x {0.0 3.0 23 ------- null}
- -t 0.353 -s 1 -d 2 -p cbr -e 1000 -c 1 -i 23 -a 1 -x {0.0 3.0 23 ------- null}
h -t 0.353 -s 1 -d 2 -p cbr -e 1000 -c 1 -i 23 -a 1 -x {0.0 3.0 -1 ------- null}
r -t 0.356 -s 1 -d 2 -p cbr -e 1000 -c 1 -i 21 -a 1 -x {0.0 3.0 21 ------- null}
+ -t 0.356 -s 2 -d 3 -p cbr -e 1000 -c 1 -i 21 -a 1 -x {0.0 3.0 21 ------- null}
- -t 0.356 -s 2 -d 3 -p cbr -e 1000 -c 1 -i 21 -a 1 -x {0.0 3.0 21 ------- null}
h -t 0.356 -s 2 -d 3 -p cbr -e 1000 -c 1 -i 21 -a 1 -x {0.0 3.0 -1 ------- null}
r -t 0.359 -s 2 -d 3 -p cbr -e 1000 -c 1 -i 19 -a 1 -x {0.0 3.0 19 ------- null}
+ -t 0.36 -s 0 -d 1 -p cbr -e 1000 -c 1 -i 26 -a 1 -x {0.0 3.0 26 ------- null}
- -t 0.36 -s 0 -d 1 -p cbr -e 1000 -c 1 -i 26 -a 1 -x {0.0 3.0 26 ------- null}
h -t 0.36 -s 0 -d 1 -p cbr -e 1000 -c 1 -i 26 -a 1 -x {0.0 3.0 -1 ------- null}
r -t 0.363 -s 0 -d 1 -p cbr -e 1000 -c 1 -i 24 -a 1 -x {0.0 3.0 24 ------- null}
+ -t 0.363 -s 1 -d 2 -p cbr -e 1000 -c 1 -i 24 -a 1 -x {0.0 3.0 24 ------- null}
- -t 0.363 -s 1 -d 2 -p cbr -e 1000 -c 1 -i 24 -a 1 -x {0.0 3.0 24 ------- null}
h -t 0.363 -s 1 -d 2 -p cbr -e 1000 -c 1 -i 24 -a 1 -x {0.0 3.0 -1 ------- null}
r -t 0.366 -s 1 -d 2 -p cbr -e 1000 -c 1 -i 22 -a 1 -x {0.0 3.0 22 ------- null}
+ -t 0.366 -s 2 -d 3 -p cbr -e 1000 -c 1 -i 22 -a 1 -x {0.0 3.0 22 ------- null}
- -t 0.366 -s 2 -d 3 -p cbr -e 1000 -c 1 -i 22 -a 1 -x {0.0 3.0 22 ------- null}
h -t 0.366 -s 2 -d 3 -p cbr -e 1000 -c 1 -i 22 -a 1 -x {0.0 3.0 -1 ------- null}
r -t 0.369 -s 2 -d 3 -p cbr -e 1000 -c 1 -i 20 -a 1 -x {0.0 3.0 20 ------- null}
+ -t 0.37 -s 0 -d 1 -p cbr -e 1000 -c 1 -i 27 -a 1 -x {0.0 3.0 27 ------- null}
- -t 0.37 -s 0 -d 1 -p cbr -e 1000 -c 1 -i 27 -a 1 -x {0.0 3.0 27 ------- null}
h -t 0.37 -s 0 -d 1 -p cbr -e 1000 -c 1 -i 27 -a 1 -x {0.0 3.0 -1 ------- null}
r -t 0.373 -s 0 -d 1 -p cbr -e 1000 -c 1 -i 25 -a 1 -x {0.0 3.0 25 ------- null}
+ -t 0.373 -s 1 -d 2 -p cbr -e 1000 -c 1 -i 25 -a 1 -x {0.0 3.0 25 ------- null}
- -t 0.373 -s 1 -d 2 -p cbr -e 1000 -c 1 -i 25 -a 1 -x {0.0 3.0 25 ------- null}
h -t 0.373 -s 1 -d 2 -p cbr -e 1000 -c 1 -i 25 -a 1 -x {0.0 3.0 -1 ------- null}
r -t 0.376 -s 1 -d 2 -p cbr -e 1000 -c 1 -i 23 -a 1 -x {0.0 3.0 23 ------- null}
+ -t 0.376 -s 2 -d 3 -p cbr -e 1000 -c 1 -i 23 -a 1 -x {0.0 3.0 23 ------- null}
- -t 0.376 -s 2 -d 3 -p cbr -e 1000 -c 1 -i 23 -a 1 -x {0.0 3.0 23 ------- null}
h -t 0.376 -s 2 -d 3 -p cbr -e 1000 -c 1 -i 23 -a 1 -x {0.0 3.0 -1 ------- null}
r -t 0.379 -s 2 -d 3 -p cbr -e 1000 -c 1 -i 21 -a 1 -x {0.0 3.0 21 ------- null}
+ -t 0.38 -s 0 -d 1 -p cbr -e 1000 -c 1 -i 28 -a 1 -x {0.0 3.0 28 ------- null}
- -t 0.38 -s 0 -d 1 -p cbr -e 1000 -c 1 -i 28 -a 1 -x {0.0 3.0 28 ------- null}
h -t 0.38 -s 0 -d 1 -p cbr -e 1000 -c 1 -i 28 -a 1 -x {0.0 3.0 -1 ------- null}
r -t 0.383 -s 0 -d 1 -p cbr -e 1000 -c 1 -i 26 -a 1 -x {0.0 3.0 26 ------- null}
+ -t 0.383 -s 1 -d 2 -p cbr -e 1000 -c 1 -i 26 -a 1 -x {0.0 3.0 26 ------- null}
- -t 0.383 -s 1 -d 2 -p cbr -e 1000 -c 1 -i 26 -a 1 -x {0.0 3.0 26 ------- null}
h -t 0.383 -s 1 -d 2 -p cbr -e 1000 -c 1 -i 26 -a 1 -x {0.0 3.0 -1 ------- null}
r -t 0.386 -s 1 -d 2 -p cbr -e 1000 -c 1 -i 24 -a 1 -x {0.0 3.0 24 ------- null}
+ -t 0.386 -s 2 -d 3 -p cbr -e 1000 -c 1 -i 24 -a 1 -x {0.0 3.0 24 ------- null}
- -t 0.386 -s 2 -d 3 -p cbr -e 1000 -c 1 -i 24 -a 1 -x {0.0 3.0 24 ------- null}
h -t 0.386 -s 2 -d 3 -p cbr -e 1000 -c 1 -i 24 -a 1 -x {0.0 3.0 -1 ------- null}
r -t 0.389 -s 2 -d 3 -p cbr -e 1000 -c 1 -i 22 -a 1 -x {0.0 3.0 22 ------- null}
+ -t 0.39 -s 0 -d 1 -p cbr -e 1000 -c 1 -i 29 -a 1 -x {0.0 3.0 29 ------- null}
- -t 0.39 -s 0 -d 1 -p cbr -e 1000 -c 1 -i 29 -a 1 -x {0.0 3.0 29 ------- null}
h -t 0.39 -s 0 -d 1 -p cbr -e 1000 -c 1 -i 29 -a 1 -x {0.0 3.0 -1 ------- null}
r -t 0.393 -s 0 -d 1 -p cbr -e 1000 -c 1 -i 27 -a 1 -x {0.0 3.0 27 ------- null}
+ -t 0.393 -s 1 -d 2 -p cbr -e 1000 -c 1 -i 27 -a 1 -x {0.0 3.0 27 ------- null}
- -t 0.393 -s 1 -d 2 -p cbr -e 1000 -c 1 -i 27 -a 1 -x {0.0 3.0 27 ------- null}
h -t 0.393 -s 1 -d 2 -p cbr -e 1000 -c 1 -i 27 -a 1 -x {0.0 3.0 -1 ------- null}
r -t 0.396 -s 1 -d 2 -p cbr -e 1000 -c 1 -i 25 -a 1 -x {0.0 3.0 25 ------- null}
+ -t 0.396 -s 2 -d 3 -p cbr -e 1000 -c 1 -i 25 -a 1 -x {0.0 3.0 25 ------- null}
- -t 0.396 -s 2 -d 3 -p cbr -e 1000 -c 1 -i 25 -a 1 -x {0.0 3.0 25 ------- null}
h -t 0.396 -s 2 -d 3 -p cbr -e 1000 -c 1 -i 25 -a 1 -x {0.0 3.0 -1 ------- null}
r -t 0.399 -s 2 -d 3 -p cbr -e 1000 -c 1 -i 23 -a 1 -x {0.0 3.0 23 ------- null}
+ -t 0.4 -s 0 -d 1 -p cbr -e 1000 -c 1 -i 30 -a 1 -x {0.0 3.0 30 ------- null}
- -t 0.4 -s 0 -d 1 -p cbr -e 1000 -c 1 -i 30 -a 1 -x {0.0 3.0 30 ------- null}
h -t 0.4 -s 0 -d 1 -p cbr -e 1000 -c 1 -i 30 -a 1 -x {0.0 3.0 -1 ------- null}
r -t 0.403 -s 0 -d 1 -p cbr -e 1000 -c 1 -i 28 -a 1 -x {0.0 3.0 28 ------- null}
+ -t 0.403 -s 1 -d 2 -p cbr -e 1000 -c 1 -i 28 -a 1 -x {0.0 3.0 28 ------- null}
- -t 0.403 -s 1 -d 2 -p cbr -e 1000 -c 1 -i 28 -a 1 -x {0.0 3.0 28 ------- null}
h -t 0.403 -s 1 -d 2 -p cbr -e 1000 -c 1 -i 28 -a 1 -x {0.0 3.0 -1 ------- null}
r -t 0.406 -s 1 -d 2 -p cbr -e 1000 -c 1 -i 26 -a 1 -x {0.0 3.0 26 ------- null}
+ -t 0.406 -s 2 -d 3 -p cbr -e 1000 -c 1 -i 26 -a 1 -x {0.0 3.0 26 ------- null}
- -t 0.406 -s 2 -d 3 -p cbr -e 1000 -c 1 -i 26 -a 1 -x {0.0 3.0 26 ------- null}
h -t 0.406 -s 2 -d 3 -p cbr -e 1000 -c 1 -i 26 -a 1 -x {0.0 3.0 -1 ------- null}
r -t 0.409 -s 2 -d 3 -p cbr -e 1000 -c 1 -i 24 -a 1 -x {0.0 3.0 24 ------- null}
+ -t 0.41 -s 0 -d 1 -p cbr -e 1000 -c 1 -i 31 -a 1 -x {0.0 3.0 31 ------- null}
- -t 0.41 -s 0 -d 1 -p cbr -e 1000 -c 1 -i 31 -a 1 -x {0.0 3.0 31 ------- null}
h -t 0.41 -s 0 -d 1 -p cbr -e 1000 -c 1 -i 31 -a 1 -x {0.0 3.0 -1 ------- null}
r -t 0.413 -s 0 -d 1 -p cbr -e 1000 -c 1 -i 29 -a 1 -x {0.0 3.0 29 ------- null}
+ -t 0.413 -s 1 -d 2 -p cbr -e 1000 -c 1 -i 29 -a 1 -x {0.0 3.0 29 ------- null}
- -t 0.413 -s 1 -d 2 -p cbr -e 1000 -c 1 -i 29 -a 1 -x {0.0 3.0 29 ------- null}
h -t 0.413 -s 1 -d 2 -p cbr -e 1000 -c 1 -i 29 -a 1 -x {0.0 3.0 -1 ------- null}
r -t 0.416 -s 1 -d 2 -p cbr -e 1000 -c 1 -i 27 -a 1 -x {0.0 3.0 27 ------- null}
+ -t 0.416 -s 2 -d 3 -p cbr -e 1000 -c 1 -i 27 -a 1 -x {0.0 3.0 27 ------- null}
- -t 0.416 -s 2 -d 3 -p cbr -e 1000 -c 1 -i 27 -a 1 -x {0.0 3.0 27 ------- null}
h -t 0.416 -s 2 -d 3 -p cbr -e 1000 -c 1 -i 27 -a 1 -x {0.0 3.0 -1 ------- null}
r -t 0.419 -s 2 -d 3 -p cbr -e 1000 -c 1 -i 25 -a 1 -x {0.0 3.0 25 ------- null}
+ -t 0.42 -s 0 -d 1 -p cbr -e 1000 -c 1 -i 32 -a 1 -x {0.0 3.0 32 ------- null}
- -t 0.42 -s 0 -d 1 -p cbr -e 1000 -c 1 -i 32 -a 1 -x {0.0 3.0 32 ------- null}
h -t 0.42 -s 0 -d 1 -p cbr -e 1000 -c 1 -i 32 -a 1 -x {0.0 3.0 -1 ------- null}
r -t 0.423 -s 0 -d 1 -p cbr -e 1000 -c 1 -i 30 -a 1 -x {0.0 3.0 30 ------- null}
+ -t 0.423 -s 1 -d 2 -p cbr -e 1000 -c 1 -i 30 -a 1 -x {0.0 3.0 30 ------- null}
- -t 0.423 -s 1 -d 2 -p cbr -e 1000 -c 1 -i 30 -a 1 -x {0.0 3.0 30 ------- null}
h -t 0.423 -s 1 -d 2 -p cbr -e 1000 -c 1 -i 30 -a 1 -x {0.0 3.0 -1 ------- null}
r -t 0.426 -s 1 -d 2 -p cbr -e 1000 -c 1 -i 28 -a 1 -x {0.0 3.0 28 ------- null}