+ 0.1 0 1 cbr 1000 ------- 1 0.0 3.0 0 0
- 0.1 0 1 cbr 1000 ------- 1 0.0 3.0 0 0
+ 0.11 0 1 cbr 1000 ------- 1 0.0 3.0 1 1
- 0.11 0 1 cbr 1000 ------- 1 0.0 3.0 1 1
+ 0.12 0 1 cbr 1000 ------- 1 0.0 3.0 2 2
- 0.12 0 1 cbr 1000 ------- 1 0.0 3.0 2 2
r 0.123 0 1 cbr 1000 ------- 1 0.0 3.0 0 0
+ 0.123 1 2 cbr 1000 ------- 1 0.0 3.0 0 0
- 0.123 1 2 cbr 1000 ------- 1 0.0 3.0 0 0
+ 0.13 0 1 cbr 1000 ------- 1 0.0 3.0 3 3
- 0.13 0 1 cbr 1000 ------- 1 0.0 3.0 3 3
r 0.133 0 1 cbr 1000 ------- 1 0.0 3.0 1 1
+ 0.133 1 2 cbr 1000 ------- 1 0.0 3.0 1 1
- 0.133 1 2 cbr 1000 ------- 1 0.0 3.0 1 1
+ 0.14 0 1 cbr 1000 ------- 1 0.0 3.0 4 4
- 0.14 0 1 cbr 1000 ------- 1 0.0 3.0 4 4
r 0.143 0 1 cbr 1000 ------- 1 0.0 3.0 2 2
+ 0.143 1 2 cbr 1000 ------- 1 0.0 3.0 2 2
- 0.143 1 2 cbr 1000 ------- 1 0.0 3.0 2 2
r 0.146 1 2 cbr 1000 ------- 1 0.0 3.0 0 0
+ 0.146 2 3 cbr 1000 ------- 1 0.0 3.0 0 0
- 0.146 2 3 cbr 1000 ------- 1 0.0 3.0 0 0
+ 0.15 0 1 cbr 1000 ------- 1 0.0 3.0 5 5
- 0.15 0 1 cbr 1000 ------- 1 0.0 3.0 5 5
r 0.153 0 1 cbr 1000 ------- 1 0.0 3.0 3 3
+ 0.153 1 2 cbr 1000 ------- 1 0.0 3.0 3 3
- 0.153 1 2 cbr 1000 ------- 1 0.0 3.0 3 3
r 0.156 1 2 cbr 1000 ------- 1 0.0 3.0 1 1
+ 0.156 2 3 cbr 1000 ------- 1 0.0 3.0 1 1
- 0.156 2 3 cbr 1000 ------- 1 0.0 3.0 1 1
+ 0.16 0 1 cbr 1000 ------- 1 0.0 3.0 6 6
- 0.16 0 1 cbr 1000 ------- 1 0.0 3.0 6 6
r 0.163 0 1 cbr 1000 ------- 1 0.0 3.0 4 4
+ 0.163 1 2 cbr 1000 ------- 1 0.0 3.0 4 4
- 0.163 1 2 cbr 1000 ------- 1 0.0 3.0 4 4
r 0.166 1 2 cbr 1000 ------- 1 0.0 3.0 2 2
+ 0.166 2 3 cbr 1000 ------- 1 0.0 3.0 2 2
- 0.166 2 3 cbr 1000 ------- 1 0.0 3.0 2 2
r 0.169 2 3 cbr 1000 ------- 1 0.0 3.0 0 0
+ 0.17 0 1 cbr 1000 ------- 1 0.0 3.0 7 7
- 0.17 0 1 cbr 1000 ------- 1 0.0 3.0 7 7
r 0.173 0 1 cbr 1000 ------- 1 0.0 3.0 5 5
+ 0.173 1 2 cbr 1000 ------- 1 0.0 3.0 5 5
- 0.173 1 2 cbr 1000 ------- 1 0.0 3.0 5 5
r 0.176 1 2 cbr 1000 ------- 1 0.0 3.0 3 3
+ 0.176 2 3 cbr 1000 ------- 1 0.0 3.0 3 3
- 0.176 2 3 cbr 1000 ------- 1 0.0 3.0 3 3
r 0.179 2 3 cbr 1000 ------- 1 0.0 3.0 1 1
+ 0.18 0 1 cbr 1000 ------- 1 0.0 3.0 8 8
- 0.18 0 1 cbr 1000 ------- 1 0.0 3.0 8 8
r 0.183 0 1 cbr 1000 ------- 1 0.0 3.0 6 6
+ 0.183 1 2 cbr 1000 ------- 1 0.0 3.0 6 6
- 0.183 1 2 cbr 1000 ------- 1 0.0 3.0 6 6
r 0.186 1 2 cbr 1000 ------- 1 0.0 3.0 4 4
+ 0.186 2 3 cbr 1000 ------- 1 0.0 3.0 4 4
- 0.186 2 3 cbr 1000 ------- 1 0.0 3.0 4 4
r 0.189 2 3 cbr 1000 ------- 1 0.0 3.0 2 2
+ 0.19 0 1 cbr 1000 ------- 1 0.0 3.0 9 9
- 0.19 0 1 cbr 1000 ------- 1 0.0 3.0 9 9
r 0.193 0 1 cbr 1000 ------- 1 0.0 3.0 7 7
+ 0.193 1 2 cbr 1000 ------- 1 0.0 3.0 7 7
- 0.193 1 2 cbr 1000 ------- 1 0.0 3.0 7 7
r 0.196 1 2 cbr 1000 ------- 1 0.0 3.0 5 5
+ 0.196 2 3 cbr 1000 ------- 1 0.0 3.0 5 5
- 0.196 2 3 cbr 1000 ------- 1 0.0 3.0 5 5
r 0.199 2 3 cbr 1000 ------- 1 0.0 3.0 3 3
+ 0.2 0 1 cbr 1000 ------- 1 0.0 3.0 10 10
- 0.2 0 1 cbr 1000 ------- 1 0.0 3.0 10 10
r 0.203 0 1 cbr 1000 ------- 1 0.0 3.0 8 8
+ 0.203 1 2 cbr 1000 ------- 1 0.0 3.0 8 8
- 0.203 1 2 cbr 1000 ------- 1 0.0 3.0 8 8
r 0.206 1 2 cbr 1000 ------- 1 0.0 3.0 6 6
+ 0.206 2 3 cbr 1000 ------- 1 0.0 3.0 6 6
- 0.206 2 3 cbr 1000 ------- 1 0.0 3.0 6 6
r 0.209 2 3 cbr 1000 ------- 1 0.0 3.0 4 4
+ 0.21 0 1 cbr 1000 ------- 1 0.0 3.0 11 11
- 0.21 0 1 cbr 1000 ------- 1 0.0 3.0 11 11
r 0.213 0 1 cbr 1000 ------- 1 0.0 3.0 9 9
+ 0.213 1 2 cbr 1000 ------- 1 0.0 3.0 9 9
- 0.213 1 2 cbr 1000 ------- 1 0.0 3.0 9 9
r 0.216 1 2 cbr 1000 ------- 1 0.0 3.0 7 7
+ 0.216 2 3 cbr 1000 ------- 1 0.0 3.0 7 7
- 0.216 2 3 cbr 1000 ------- 1 0.0 3.0 7 7
r 0.219 2 3 cbr 1000 ------- 1 0.0 3.0 5 5
+ 0.22 0 1 cbr 1000 ------- 1 0.0 3.0 12 12
- 0.22 0 1 cbr 1000 ------- 1 0.0 3.0 12 12
r 0.223 0 1 cbr 1000 ------- 1 0.0 3.0 10 10
+ 0.223 1 2 cbr 1000 ------- 1 0.0 3.0 10 10
- 0.223 1 2 cbr 1000 ------- 1 0.0 3.0 10 10
r 0.226 1 2 cbr 1000 ------- 1 0.0 3.0 8 8
+ 0.226 2 3 cbr 1000 ------- 1 0.0 3.0 8 8
- 0.226 2 3 cbr 1000 ------- 1 0.0 3.0 8 8
r 0.229 2 3 cbr 1000 ------- 1 0.0 3.0 6 6
+ 0.23 0 1 cbr 1000 ------- 1 0.0 3.0 13 13
- 0.23 0 1 cbr 1000 ------- 1 0.0 3.0 13 13
r 0.233 0 1 cbr 1000 ------- 1 0.0 3.0 11 11
+ 0.233 1 2 cbr 1000 ------- 1 0.0 3.0 11 11
- 0.233 1 2 cbr 1000 ------- 1 0.0 3.0 11 11
r 0.236 1 2 cbr 1000 ------- 1 0.0 3.0 9 9
+ 0.236 2 3 cbr 1000 ------- 1 0.0 3.0 9 9
- 0.236 2 3 cbr 1000 ------- 1 0.0 3.0 9 9
r 0.239 2 3 cbr 1000 ------- 1 0.0 3.0 7 7
+ 0.24 0 1 cbr 1000 ------- 1 0.0 3.0 14 14
- 0.24 0 1 cbr 1000 ------- 1 0.0 3.0 14 14
r 0.243 0 1 cbr 1000 ------- 1 0.0 3.0 12 12
+ 0.243 1 2 cbr 1000 ------- 1 0.0 3.0 12 12
- 0.243 1 2 cbr 1000 ------- 1 0.0 3.0 12 12
r 0.246 1 2 cbr 1000 ------- 1 0.0 3.0 10 10
+ 0.246 2 3 cbr 1000 ------- 1 0.0 3.0 10 10
- 0.246 2 3 cbr 1000 ------- 1 0.0 3.0 10 10
r 0.249 2 3 cbr 1000 ------- 1 0.0 3.0 8 8
+ 0.25 0 1 cbr 1000 ------- 1 0.0 3.0 15 15
- 0.25 0 1 cbr 1000 ------- 1 0.0 3.0 15 15
r 0.253 0 1 cbr 1000 ------- 1 0.0 3.0 13 13
+ 0.253 1 2 cbr 1000 ------- 1 0.0 3.0 13 13
- 0.253 1 2 cbr 1000 ------- 1 0.0 3.0 13 13
r 0.256 1 2 cbr 1000 ------- 1 0.0 3.0 11 11
+ 0.256 2 3 cbr 1000 ------- 1 0.0 3.0 11 11
- 0.256 2 3 cbr 1000 ------- 1 0.0 3.0 11 11
r 0.259 2 3 cbr 1000 ------- 1 0.0 3.0 9 9
+ 0.26 0 1 cbr 1000 ------- 1 0.0 3.0 16 16
- 0.26 0 1 cbr 1000 ------- 1 0.0 3.0 16 16
r 0.263 0 1 cbr 1000 ------- 1 0.0 3.0 14 14
+ 0.263 1 2 cbr 1000 ------- 1 0.0 3.0 14 14
- 0.263 1 2 cbr 1000 ------- 1 0.0 3.0 14 14
r 0.266 1 2 cbr 1000 ------- 1 0.0 3.0 12 12
+ 0.266 2 3 cbr 1000 ------- 1 0.0 3.0 12 12
- 0.266 2 3 cbr 1000 ------- 1 0.0 3.0 12 12
r 0.269 2 3 cbr 1000 ------- 1 0.0 3.0 10 10
+ 0.27 0 1 cbr 1000 ------- 1 0.0 3.0 17 17
- 0.27 0 1 cbr 1000 ------- 1 0.0 3.0 17 17
r 0.273 0 1 cbr 1000 ------- 1 0.0 3.0 15 15
+ 0.273 1 2 cbr 1000 ------- 1 0.0 3.0 15 15
- 0.273 1 2 cbr 1000 ------- 1 0.0 3.0 15 15
r 0.276 1 2 cbr 1000 ------- 1 0.0 3.0 13 13
+ 0.276 2 3 cbr 1000 ------- 1 0.0 3.0 13 13
- 0.276 2 3 cbr 1000 ------- 1 0.0 3.0 13 13
r 0.279 2 3 cbr 1000 ------- 1 0.0 3.0 11 11
+ 0.28 0 1 cbr 1000 ------- 1 0.0 3.0 18 18
- 0.28 0 1 cbr 1000 ------- 1 0.0 3.0 18 18
r 0.283 0 1 cbr 1000 ------- 1 0.0 3.0 16 16
+ 0.283 1 2 cbr 1000 ------- 1 0.0 3.0 16 16
- 0.283 1 2 cbr 1000 ------- 1 0.0 3.0 16 16
r 0.286 1 2 cbr 1000 ------- 1 0.0 3.0 14 14
+ 0.286 2 3 cbr 1000 ------- 1 0.0 3.0 14 14
- 0.286 2 3 cbr 1000 ------- 1 0.0 3.0 14 14
r 0.289 2 3 cbr 1000 ------- 1 0.0 3.0 12 12
+ 0.29 0 1 cbr 1000 ------- 1 0.0 3.0 19 19
- 0.29 0 1 cbr 1000 ------- 1 0.0 3.0 19 19
r 0.293 0 1 cbr 1000 ------- 1 0.0 3.0 17 17
+ 0.293 1 2 cbr 1000 ------- 1 0.0 3.0 17 17
- 0.293 1 2 cbr 1000 ------- 1 0.0 3.0 17 17
r 0.296 1 2 cbr 1000 ------- 1 0.0 3.0 15 15
+ 0.296 2 3 cbr 1000 ------- 1 0.0 3.0 15 15
- 0.296 2 3 cbr 1000 ------- 1 0.0 3.0 15 15
r 0.299 2 3 cbr 1000 ------- 1 0.0 3.0 13 13
+ 0.3 0 1 cbr 1000 ------- 1 0.0 3.0 20 20
- 0.3 0 1 cbr 1000 ------- 1 0.0 3.0 20 20
r 0.303 0 1 cbr 1000 ------- 1 0.0 3.0 18 18
+ 0.303 1 2 cbr 1000 ------- 1 0.0 3.0 18 18
- 0.303 1 2 cbr 1000 ------- 1 0.0 3.0 18 18
r 0.306 1 2 cbr 1000 ------- 1 0.0 3.0 16 16
+ 0.306 2 3 cbr 1000 ------- 1 0.0 3.0 16 16
- 0.306 2 3 cbr 1000 ------- 1 0.0 3.0 16 16
r 0.309 2 3 cbr 1000 ------- 1 0.0 3.0 14 14
+ 0.31 0 1 cbr 1000 ------- 1 0.0 3.0 21 21
- 0.31 0 1 cbr 1000 ------- 1 0.0 3.0 21 21
r 0.313 0 1 cbr 1000 ------- 1 0.0 3.0 19 19
+ 0.313 1 2 cbr 1000 ------- 1 0.0 3.0 19 19
- 0.313 1 2 cbr 1000 ------- 1 0.0 3.0 19 19
r 0.316 1 2 cbr 1000 ------- 1 0.0 3.0 17 17
+ 0.316 2 3 cbr 1000 ------- 1 0.0 3.0 17 17
- 0.316 2 3 cbr 1000 ------- 1 0.0 3.0 17 17
r 0.319 2 3 cbr 1000 ------- 1 0.0 3.0 15 15
+ 0.32 0 1 cbr 1000 ------- 1 0.0 3.0 22 22
- 0.32 0 1 cbr 1000 ------- 1 0.0 3.0 22 22
r 0.323 0 1 cbr 1000 ------- 1 0.0 3.0 20 20
+ 0.323 1 2 cbr 1000 ------- 1 0.0 3.0 20 20
- 0.323 1 2 cbr 1000 ------- 1 0.0 3.0 20 20
r 0.326 1 2 cbr 1000 ------- 1 0.0 3.0 18 18
+ 0.326 2 3 cbr 1000 ------- 1 0.0 3.0 18 18
- 0.326 2 3 cbr 1000 ------- 1 0.0 3.0 18 18
r 0.329 2 3 cbr 1000 ------- 1 0.0 3.0 16 16
+ 0.33 0 1 cbr 1000 ------- 1 0.0 3.0 23 23
- 0.33 0 1 cbr 1000 ------- 1 0.0 3.0 23 23
r 0.333 0 1 cbr 1000 ------- 1 0.0 3.0 21 21
+ 0.333 1 2 cbr 1000 ------- 1 0.0 3.0 21 21
- 0.333 1 2 cbr 1000 ------- 1 0.0 3.0 21 21
r 0.336 1 2 cbr 1000 ------- 1 0.0 3.0 19 19
+ 0.336 2 3 cbr 1000 ------- 1 0.0 3.0 19 19
- 0.336 2 3 cbr 1000 ------- 1 0.0 3.0 19 19
r 0.339 2 3 cbr 1000 ------- 1 0.0 3.0 17 17
+ 0.34 0 1 cbr 1000 ------- 1 0.0 3.0 24 24
- 0.34 0 1 cbr 1000 ------- 1 0.0 3.0 24 24
r 0.343 0 1 cbr 1000 ------- 1 0.0 3.0 22 22
+ 0.343 1 2 cbr 1000 ------- 1 0.0 3.0 22 22
- 0.343 1 2 cbr 1000 ------- 1 0.0 3.0 22 22
r 0.346 1 2 cbr 1000 ------- 1 0.0 3.0 20 20
+ 0.346 2 3 cbr 1000 ------- 1 0.0 3.0 20 20
- 0.346 2 3 cbr 1000 ------- 1 0.0 3.0 20 20
r 0.349 2 3 cbr 1000 ------- 1 0.0 3.0 18 18
+ 0.35 0 1 cbr 1000 ------- 1 0.0 3.0 25 25
- 0.35 0 1 cbr 1000 ------- 1 0.0 3.0 25 25
r 0.353 0 1 cbr 1000 ------- 1 0.0 3.0 23 23
+ 0.353 1 2 cbr 1000 ------- 1 0.0 3.0 23 23
- 0.353 1 2 cbr 1000 ------- 1 0.0 3.0 23 23
r 0.356 1 2 cbr 1000 ------- 1 0.0 3.0 21 21
+ 0.356 2 3 cbr 1000 ------- 1 0.0 3.0 21 21
- 0.356 2 3 cbr 1000 ------- 1 0.0 3.0 21 21
r 0.359 2 3 cbr 1000 ------- 1 0.0 3.0 19 19
+ 0.36 0 1 cbr 1000 ------- 1 0.0 3.0 26 26
- 0.36 0 1 cbr 1000 ------- 1 0.0 3.0 26 26
r 0.363 0 1 cbr 1000 ------- 1 0.0 3.0 24 24
+ 0.363 1 2 cbr 1000 ------- 1 0.0 3.0 24 24
- 0.363 1 2 cbr 1000 ------- 1 0.0 3.0 24 24
r 0.366 1 2 cbr 1000 ------- 1 0.0 3.0 22 22
+ 0.366 2 3 cbr 1000 ------- 1 0.0 3.0 22 22
- 0.366 2 3 cbr 1000 ------- 1 0.0 3.0 22 22
r 0.369 2 3 cbr 1000 ------- 1 0.0 3.0 20 20
+ 0.37 0 1 cbr 1000 ------- 1 0.0 3.0 27 27
- 0.37 0 1 cbr 1000 ------- 1 0.0 3.0 27 27
r 0.373 0 1 cbr 1000 ------- 1 0.0 3.0 25 25
+ 0.373 1 2 cbr 1000 ------- 1 0.0 3.0 25 25
- 0.373 1 2 cbr 1000 ------- 1 0.0 3.0 25 25
r 0.376 1 2 cbr 1000 ------- 1 0.0 3.0 23 23
+ 0.376 2 3 cbr 1000 ------- 1 0.0 3.0 23 23
- 0.376 2 3 cbr 1000 ------- 1 0.0 3.0 23 23
r 0.379 2 3 cbr 1000 ------- 1 0.0 3.0 21 21
+ 0.38 0 1 cbr 1000 ------- 1 0.0 3.0 28 28
- 0.38 0 1 cbr 1000 ------- 1 0.0 3.0 28 28
r 0.383 0 1 cbr 1000 ------- 1 0.0 3.0 26 26
+ 0.383 1 2 cbr 1000 ------- 1 0.0 3.0 26 26
- 0.383 1 2 cbr 1000 ------- 1 0.0 3.0 26 26
r 0.386 1 2 cbr 1000 ------- 1 0.0 3.0 24 24
+ 0.386 2 3 cbr 1000 ------- 1 0.0 3.0 24 24
- 0.386 2 3 cbr 1000 ------- 1 0.0 3.0 24 24
r 0.389 2 3 cbr 1000 ------- 1 0.0 3.0 22 22
+ 0.39 0 1 cbr 1000 ------- 1 0.0 3.0 29 29
- 0.39 0 1 cbr 1000 ------- 1 0.0 3.0 29 29
r 0.393 0 1 cbr 1000 ------- 1 0.0 3.0 27 27
+ 0.393 1 2 cbr 1000 ------- 1 0.0 3.0 27 27
- 0.393 1 2 cbr 1000 ------- 1 0.0 3.0 27 27
r 0.396 1 2 cbr 1000 ------- 1 0.0 3.0 25 25
+ 0.396 2 3 cbr 1000 ------- 1 0.0 3.0 25 25
- 0.396 2 3 cbr 1000 ------- 1 0.0 3.0 25 25
r 0.399 2 3 cbr 1000 ------- 1 0.0 3.0 23 23
+ 0.4 0 1 cbr 1000 ------- 1 0.0 3.0 30 30
- 0.4 0 1 cbr 1000 ------- 1 0.0 3.0 30 30
r 0.403 0 1 cbr 1000 ------- 1 0.0 3.0 28 28
+ 0.403 1 2 cbr 1000 ------- 1 0.0 3.0 28 28
- 0.403 1 2 cbr 1000 ------- 1 0.0 3.0 28 28
r 0.406 1 2 cbr 1000 ------- 1 0.0 3.0 26 26
+ 0.406 2 3 cbr 1000 ------- 1 0.0 3.0 26 26
- 0.406 2 3 cbr 1000 ------- 1 0.0 3.0 26 26
r 0.409 2 3 cbr 1000 ------- 1 0.0 3.0 24 24
+ 0.41 0 1 cbr 1000 ------- 1 0.0 3.0 31 31
- 0.41 0 1 cbr 1000 ------- 1 0.0 3.0 31 31
r 0.413 0 1 cbr 1000 ------- 1 0.0 3.0 29 29
+ 0.413 1 2 cbr 1000 ------- 1 0.0 3.0 29 29
- 0.413 1 2 cbr 1000 ------- 1 0.0 3.0 29 29
r 0.416 1 2 cbr 1000 ------- 1 0.0 3.0 27 27
+ 0.416 2 3 cbr 1000 ------- 1 0.0 3.0 27 27
- 0.416 2 3 cbr 1000 ------- 1 0.0 3.0 27 27
r 0.419 2 3 cbr 1000 ------- 1 0.0 3.0 25 25
+ 0.42 0 1 cbr 1000 ------- 1 0.0 3.0 32 32
- 0.42 0 1 cbr 1000 ------- 1 0.0 3.0 32 32
r 0.423 0 1 cbr 1000 ------- 1 0.0 3.0 30 30
+ 0.423 1 2 cbr 1000 ------- 1 0.0 3.0 30 30
- 0.423 1 2 cbr 1000 ------- 1 0.0 3.0 30 30
r 0.426 1 2 cbr 1000 ------- 1 0.0 3.0 28 28
+ 0.426 2 3 cbr 1000 ------- 1 0.0 3.0 28 28
- 0.426 2 3 cbr 1000 ------- 1 0.0 3.0 28 28
r 0.429 2 3 cbr 1000 ------- 1 0.0 3.0 26 26
+ 0.43 0 1 cbr 1000 ------- 1 0.0 3.0 33 33
- 0.43 0 1 cbr 1000 ------- 1 0.0 3.0 33 33
r 0.433 0 1 cbr 1000 ------- 1 0.0 3.0 31 31
+ 0.433 1 2 cbr 1000 ------- 1 0.0 3.0 31 31
- 0.433 1 2 cbr 1000 ------- 1 0.0 3.0 31 31
r 0.436 1 2 cbr 1000 ------- 1 0.0 3.0 29 29
+ 0.436 2 3 cbr 1000 ------- 1 0.0 3.0 29 29
- 0.436 2 3 cbr 1000 ------- 1 0.0 3.0 29 29
r 0.439 2 3 cbr 1000 ------- 1 0.0 3.0 27 27
+ 0.44 0 1 cbr 1000 ------- 1 0.0 3.0 34 34
- 0.44 0 1 cbr 1000 ------- 1 0.0 3.0 34 34
r 0.443 0 1 cbr 1000 ------- 1 0.0 3.0 32 32
+ 0.443 1 2 cbr 1000 ------- 1 0.0 3.0 32 32
- 0.443 1 2 cbr 1000 ------- 1 0.0 3.0 32 32
r 0.446 1 2 cbr 1000 ------- 1 0.0 3.0 30 30
+ 0.446 2 3 cbr 1000 ------- 1 0.0 3.0 30 30
- 0.446 2 3 cbr 1000 ------- 1 0.0 3.0 30 30
r 0.449 2 3 cbr 1000 ------- 1 0.0 3.0 28 28
+ 0.45 0 1 cbr 1000 ------- 1 0.0 3.0 35 35
- 0.45 0 1 cbr 1000 ------- 1 0.0 3.0 35 35
r 0.453 0 1 cbr 1000 ------- 1 0.0 3.0 33 33
+ 0.453 1 2 cbr 1000 ------- 1 0.0 3.0 33 33
- 0.453 1 2 cbr 1000 ------- 1 0.0 3.0 33 33
r 0.456 1 2 cbr 1000 ------- 1 0.0 3.0 31 31
+ 0.456 2 3 cbr 1000 ------- 1 0.0 3.0 31 31
- 0.456 2 3 cbr 1000 ------- 1 0.0 3.0 31 31
r 0.459 2 3 cbr 1000 ------- 1 0.0 3.0 29 29
+ 0.46 0 1 cbr 1000 ------- 1 0.0 3.0 36 36
- 0.46 0 1 cbr 1000 ------- 1 0.0 3.0 36 36
r 0.463 0 1 cbr 1000 ------- 1 0.0 3.0 34 34
+ 0.463 1 2 cbr 1000 ------- 1 0.0 3.0 34 34
- 0.463 1 2 cbr 1000 ------- 1 0.0 3.0 34 34
r 0.466 1 2 cbr 1000 ------- 1 0.0 3.0 32 32
+ 0.466 2 3 cbr 1000 ------- 1 0.0 3.0 32 32
- 0.466 2 3 cbr 1000 ------- 1 0.0 3.0 32 32
r 0.469 2 3 cbr 1000 ------- 1 0.0 3.0 30 30
+ 0.47 0 1 cbr 1000 ------- 1 0.0 3.0 37 37
- 0.47 0 1 cbr 1000 ------- 1 0.0 3.0 37 37
r 0.473 0 1 cbr 1000 ------- 1 0.0 3.0 35 35
+ 0.473 1 2 cbr 1000 ------- 1 0.0 3.0 35 35
- 0.473 1 2 cbr 1000 ------- 1 0.0 3.0 35 35
r 0.476 1 2 cbr 1000 ------- 1 0.0 3.0 33 33
+ 0.476 2 3 cbr 1000 ------- 1 0.0 3.0 33 33
- 0.476 2 3 cbr 1000 ------- 1 0.0 3.0 33 33
r 0.479 2 3 cbr 1000 ------- 1 0.0 3.0 31 31
+ 0.48 0 1 cbr 1000 ------- 1 0.0 3.0 38 38
- 0.48 0 1 cbr 1000 ------- 1 0.0 3.0 38 38
r 0.483 0 1 cbr 1000 ------- 1 0.0 3.0 36 36
+ 0.483 1 2 cbr 1000 ------- 1 0.0 3.0 36 36
- 0.483 1 2 cbr 1000 ------- 1 0.0 3.0 36 36
r 0.486 1 2 cbr 1000 ------- 1 0.0 3.0 34 34
+ 0.486 2 3 cbr 1000 ------- 1 0.0 3.0 34 34
- 0.486 2 3 cbr 1000 ------- 1 0.0 3.0 34 34
r 0.489 2 3 cbr 1000 ------- 1 0.0 3.0 32 32
+ 0.49 0 1 cbr 1000 ------- 1 0.0 3.0 39 39
- 0.49 0 1 cbr 1000 ------- 1 0.0 3.0 39 39
r 0.493 0 1 cbr 1000 ------- 1 0.0 3.0 37 37
+ 0.493 1 2 cbr 1000 ------- 1 0.0 3.0 37 37
- 0.493 1 2 cbr 1000 ------- 1 0.0 3.0 37 37
r 0.496 1 2 cbr 1000 ------- 1 0.0 3.0 35 35
+ 0.496 2 3 cbr 1000 ------- 1 0.0 3.0 35 35
- 0.496 2 3 cbr 1000 ------- 1 0.0 3.0 35 35
r 0.499 2 3 cbr 1000 ------- 1 0.0 3.0 33 33
+ 0.5 0 1 cbr 1000 ------- 1 0.0 3.0 40 40
- 0.5 0 1 cbr 1000 ------- 1 0.0 3.0 40 40
r 0.503 0 1 cbr 1000 ------- 1 0.0 3.0 38 38
+ 0.503 1 2 cbr 1000 ------- 1 0.0 3.0 38 38
- 0.503 1 2 cbr 1000 ------- 1 0.0 3.0 38 38
r 0.506 1 2 cbr 1000 ------- 1 0.0 3.0 36 36
+ 0.506 2 3 cbr 1000 ------- 1 0.0 3.0 36 36
- 0.506 2 3 cbr 1000 ------- 1 0.0 3.0 36 36
r 0.509 2 3 cbr 1000 ------- 1 0.0 3.0 34 34
+ 0.51 0 1 cbr 1000 ------- 1 0.0 3.0 41 41
- 0.51 0 1 cbr 1000 ------- 1 0.0 3.0 41 41
r 0.513 0 1 cbr 1000 ------- 1 0.0 3.0 39 39
+ 0.513 1 2 cbr 1000 ------- 1 0.0 3.0 39 39
- 0.513 1 2 cbr 1000 ------- 1 0.0 3.0 39 39
r 0.516 1 2 cbr 1000 ------- 1 0.0 3.0 37 37
+ 0.516 2 3 cbr 1000 ------- 1 0.0 3.0 37 37
- 0.516 2 3 cbr 1000 ------- 1 0.0 3.0 37 37
r 0.519 2 3 cbr 1000 ------- 1 0.0 3.0 35 35
+ 0.52 0 1 cbr 1000 ------- 1 0.0 3.0 42 42
- 0.52 0 1 cbr 1000 ------- 1 0.0 3.0 42 42
r 0.523 0 1 cbr 1000 ------- 1 0.0 3.0 40 40
+ 0.523 1 2 cbr 1000 ------- 1 0.0 3.0 40 40
- 0.523 1 2 cbr 1000 ------- 1 0.0 3.0 40 40
r 0.526 1 2 cbr 1000 ------- 1 0.0 3.0 38 38
+ 0.526 2 3 cbr 1000 ------- 1 0.0 3.0 38 38
- 0.526 2 3 cbr 1000 ------- 1 0.0 3.0 38 38
r 0.529 2 3 cbr 1000 ------- 1 0.0 3.0 36 36
+ 0.53 0 1 cbr 1000 ------- 1 0.0 3.0 43 43
- 0.53 0 1 cbr 1000 ------- 1 0.0 3.0 43 43
r 0.533 0 1 cbr 1000 ------- 1 0.0 3.0 41 41
+ 0.533 1 2 cbr 1000 ------- 1 0.0 3.0 41 41
- 0.533 1 2 cbr 1000 ------- 1 0.0 3.0 41 41
r 0.536 1 2 cbr 1000 ------- 1 0.0 3.0 39 39
+ 0.536 2 3 cbr 1000 ------- 1 0.0 3.0 39 39
- 0.536 2 3 cbr 1000 ------- 1 0.0 3.0 39 39
r 0.539 2 3 cbr 1000 ------- 1 0.0 3.0 37 37
+ 0.54 0 1 cbr 1000 ------- 1 0.0 3.0 44 44
- 0.54 0 1 cbr 1000 ------- 1 0.0 3.0 44 44
r 0.543 0 1 cbr 1000 ------- 1 0.0 3.0 42 42
+ 0.543 1 2 cbr 1000 ------- 1 0.0 3.0 42 42
- 0.543 1 2 cbr 1000 ------- 1 0.0 3.0 42 42
r 0.546 1 2 cbr 1000 ------- 1 0.0 3.0 40 40
+ 0.546 2 3 cbr 1000 ------- 1 0.0 3.0 40 40
- 0.546 2 3 cbr 1000 ------- 1 0.0 3.0 40 40
r 0.549 2 3 cbr 1000 ------- 1 0.0 3.0 38 38
+ 0.55 0 1 cbr 1000 ------- 1 0.0 3.0 45 45
- 0.55 0 1 cbr 1000 ------- 1 0.0 3.0 45 45
r 0.553 0 1 cbr 1000 ------- 1 0.0 3.0 43 43
+ 0.553 1 2 cbr 1000 ------- 1 0.0 3.0 43 43
- 0.553 1 2 cbr 1000 ------- 1 0.0 3.0 43 43
r 0.556 1 2 cbr 1000 ------- 1 0.0 3.0 41 41
+ 0.556 2 3 cbr 1000 ------- 1 0.0 3.0 41 41
- 0.556 2 3 cbr 1000 ------- 1 0.0 3.0 41 41
r 0.559 2 3 cbr 1000 ------- 1 0.0 3.0 39 39
+ 0.56 0 1 cbr 1000 ------- 1 0.0 3.0 46 46
- 0.56 0 1 cbr 1000 ------- 1 0.0 3.0 46 46
r 0.563 0 1 cbr 1000 ------- 1 0.0 3.0 44 44
+ 0.563 1 2 cbr 1000 ------- 1 0.0 3.0 44 44
- 0.563 1 2 cbr 1000 ------- 1 0.0 3.0 44 44
r 0.566 1 2 cbr 1000 ------- 1 0.0 3.0 42 42
+ 0.566 2 3 cbr 1000 ------- 1 0.0 3.0 42 42
- 0.566 2 3 cbr 1000 ------- 1 0.0 3.0 42 42
r 0.569 2 3 cbr 1000 ------- 1 0.0 3.0 40 40
+ 0.57 0 1 cbr 1000 ------- 1 0.0 3.0 47 47
- 0.57 0 1 cbr 1000 ------- 1 0.0 3.0 47 47
r 0.573 0 1 cbr 1000 ------- 1 0.0 3.0 45 45
+ 0.573 1 2 cbr 1000 ------- 1 0.0 3.0 45 45
- 0.573 1 2 cbr 1000 ------- 1 0.0 3.0 45 45
r 0.576 1 2 cbr 1000 ------- 1 0.0 3.0 43 43
+ 0.576 2 3 cbr 1000 ------- 1 0.0 3.0 43 43
- 0.576 2 3 cbr 1000 ------- 1 0.0 3.0 43 43
r 0.579 2 3 cbr 1000 ------- 1 0.0 3.0 41 41
+ 0.58 0 1 cbr 1000 ------- 1 0.0 3.0 48 48
- 0.58 0 1 cbr 1000 ------- 1 0.0 3.0 48 48
r 0.583 0 1 cbr 1000 ------- 1 0.0 3.0 46 46
+ 0.583 1 2 cbr 1000 ------- 1 0.0 3.0 46 46
- 0.583 1 2 cbr 1000 ------- 1 0.0 3.0 46 46
r 0.586 1 2 cbr 1000 ------- 1 0.0 3.0 44 44
+ 0.586 2 3 cbr 1000 ------- 1 0.0 3.0 44 44
- 0.586 2 3 cbr 1000 ------- 1 0.0 3.0 44 44
r 0.589 2 3 cbr 1000 ------- 1 0.0 3.0 42 42
+ 0.59 0 1 cbr 1000 ------- 1 0.0 3.0 49 49
- 0.59 0 1 cbr 1000 ------- 1 0.0 3.0 49 49
r 0.593 0 1 cbr 1000 ------- 1 0.0 3.0 47 47
+ 0.593 1 2 cbr 1000 ------- 1 0.0 3.0 47 47
- 0.593 1 2 cbr 1000 ------- 1 0.0 3.0 47 47
r 0.596 1 2 cbr 1000 ------- 1 0.0 3.0 45 45
+ 0.596 2 3 cbr 1000 ------- 1 0.0 3.0 45 45
- 0.596 2 3 cbr 1000 ------- 1 0.0 3.0 45 45
r 0.599 2 3 cbr 1000 ------- 1 0.0 3.0 43 43
+ 0.6 0 1 cbr 1000 ------- 1 0.0 3.0 50 50
- 0.6 0 1 cbr 1000 ------- 1 0.0 3.0 50 50
r 0.603 0 1 cbr 1000 ------- 1 0.0 3.0 48 48
+ 0.603 1 2 cbr 1000 ------- 1 0.0 3.0 48 48
- 0.603 1 2 cbr 1000 ------- 1 0.0 3.0 48 48
r 0.606 1 2 cbr 1000 ------- 1 0.0 3.0 46 46
+ 0.606 2 3 cbr 1000 ------- 1 0.0 3.0 46 46
- 0.606 2 3 cbr 1000 ------- 1 0.0 3.0 46 46
r 0.609 2 3 cbr 1000 ------- 1 0.0 3.0 44 44
+ 0.61 0 1 cbr 1000 ------- 1 0.0 3.0 51 51
- 0.61 0 1 cbr 1000 ------- 1 0.0 3.0 51 51
r 0.613 0 1 cbr 1000 ------- 1 0.0 3.0 49 49
+ 0.613 1 2 cbr 1000 ------- 1 0.0 3.0 49 49
- 0.613 1 2 cbr 1000 ------- 1 0.0 3.0 49 49
r 0.616 1 2 cbr 1000 ------- 1 0.0 3.0 47 47
+ 0.616 2 3 cbr 1000 ------- 1 0.0 3.0 47 47
- 0.616 2 3 cbr 1000 ------- 1 0.0 3.0 47 47
r 0.619 2 3 cbr 1000 ------- 1 0.0 3.0 45 45
+ 0.62 0 1 cbr 1000 ------- 1 0.0 3.0 52 52
- 0.62 0 1 cbr 1000 ------- 1 0.0 3.0 52 52
r 0.623 0 1 cbr 1000 ------- 1 0.0 3.0 50 50
+ 0.623 1 2 cbr 1000 ------- 1 0.0 3.0 50 50
- 0.623 1 2 cbr 1000 ------- 1 0.0 3.0 50 50
r 0.626 1 2 cbr 1000 ------- 1 0.0 3.0 48 48
+ 0.626 2 3 cbr 1000 ------- 1 0.0 3.0 48 48
- 0.626 2 3 cbr 1000 ------- 1 0.0 3.0 48 48
r 0.629 2 3 cbr 1000 ------- 1 0.0 3.0 46 46
+ 0.63 0 1 cbr 1000 ------- 1 0.0 3.0 53 53
- 0.63 0 1 cbr 1000 ------- 1 0.0 3.0 53 53
r 0.633 0 1 cbr 1000 ------- 1 0.0 3.0 51 51
+ 0.633 1 2 cbr 1000 ------- 1 0.0 3.0 51 51
- 0.633 1 2 cbr 1000 ------- 1 0.0 3.0 51 51
r 0.636 1 2 cbr 1000 ------- 1 0.0 3.0 49 49
+ 0.636 2 3 cbr 1000 ------- 1 0.0 3.0 49 49
- 0.636 2 3 cbr 1000 ------- 1 0.0 3.0 49 49
r 0.639 2 3 cbr 1000 ------- 1 0.0 3.0 47 47
+ 0.64 0 1 cbr 1000 ------- 1 0.0 3.0 54 54
- 0.64 0 1 cbr 1000 ------- 1 0.0 3.0 54 54
r 0.643 0 1 cbr 1000 ------- 1 0.0 3.0 52 52
+ 0.643 1 2 cbr 1000 ------- 1 0.0 3.0 52 52
- 0.643 1 2 cbr 1000 ------- 1 0.0 3.0 52 52
r 0.646 1 2 cbr 1000 ------- 1 0.0 3.0 50 50
+ 0.646 2 3 cbr 1000 ------- 1 0.0 3.0 50 50
- 0.646 2 3 cbr 1000 ------- 1 0.0 3.0 50 50
r 0.649 2 3 cbr 1000 ------- 1 0.0 3.0 48 48
+ 0.65 0 1 cbr 1000 ------- 1 0.0 3.0 55 55
- 0.65 0 1 cbr 1000 ------- 1 0.0 3.0 55 55
r 0.653 0 1 cbr 1000 ------- 1 0.0 3.0 53 53
+ 0.653 1 2 cbr 1000 ------- 1 0.0 3.0 53 53
- 0.653 1 2 cbr 1000 ------- 1 0.0 3.0 53 53
r 0.656 1 2 cbr 1000 ------- 1 0.0 3.0 51 51
+ 0.656 2 3 cbr 1000 ------- 1 0.0 3.0 51 51
- 0.656 2 3 cbr 1000 ------- 1 0.0 3.0 51 51
r 0.659 2 3 cbr 1000 ------- 1 0.0 3.0 49 49
+ 0.66 0 1 cbr 1000 ------- 1 0.0 3.0 56 56
- 0.66 0 1 cbr 1000 ------- 1 0.0 3.0 56 56
r 0.663 0 1 cbr 1000 ------- 1 0.0 3.0 54 54
+ 0.663 1 2 cbr 1000 ------- 1 0.0 3.0 54 54
- 0.663 1 2 cbr 1000 ------- 1 0.0 3.0 54 54
r 0.666 1 2 cbr 1000 ------- 1 0.0 3.0 52 52
+ 0.666 2 3 cbr 1000 ------- 1 0.0 3.0 52 52
- 0.666 2 3 cbr 1000 ------- 1 0.0 3.0 52 52
r 0.669 2 3 cbr 1000 ------- 1 0.0 3.0 50 50
+ 0.67 0 1 cbr 1000 ------- 1 0.0 3.0 57 57
- 0.67 0 1 cbr 1000 ------- 1 0.0 3.0 57 57
r 0.673 0 1 cbr 1000 ------- 1 0.0 3.0 55 55
+ 0.673 1 2 cbr 1000 ------- 1 0.0 3.0 55 55
- 0.673 1 2 cbr 1000 ------- 1 0.0 3.0 55 55
r 0.676 1 2 cbr 1000 ------- 1 0.0 3.0 53 53
+ 0.676 2 3 cbr 1000 ------- 1 0.0 3.0 53 53
- 0.676 2 3 cbr 1000 ------- 1 0.0 3.0 53 53
r 0.679 2 3 cbr 1000 ------- 1 0.0 3.0 51 51
+ 0.68 0 1 cbr 1000 ------- 1 0.0 3.0 58 58
- 0.68 0 1 cbr 1000 ------- 1 0.0 3.0 58 58
r 0.683 0 1 cbr 1000 ------- 1 0.0 3.0 56 56
+ 0.683 1 2 cbr 1000 ------- 1 0.0 3.0 56 56
- 0.683 1 2 cbr 1000 ------- 1 0.0 3.0 56 56
r 0.686 1 2 cbr 1000 ------- 1 0.0 3.0 54 54
+ 0.686 2 3 cbr 1000 ------- 1 0.0 3.0 54 54
- 0.686 2 3 cbr 1000 ------- 1 0.0 3.0 54 54
r 0.689 2 3 cbr 1000 ------- 1 0.0 3.0 52 52
+ 0.69 0 1 cbr 1000 ------- 1 0.0 3.0 59 59
- 0.69 0 1 cbr 1000 ------- 1 0.0 3.0 59 59
r 0.693 0 1 cbr 1000 ------- 1 0.0 3.0 57 57
+ 0.693 1 2 cbr 1000 ------- 1 0.0 3.0 57 57
- 0.693 1 2 cbr 1000 ------- 1 0.0 3.0 57 57
r 0.696 1 2 cbr 1000 ------- 1 0.0 3.0 55 55
+ 0.696 2 3 cbr 1000 ------- 1 0.0 3.0 55 55
- 0.696 2 3 cbr 1000 ------- 1 0.0 3.0 55 55
r 0.699 2 3 cbr 1000 ------- 1 0.0 3.0 53 53
+ 0.7 0 1 cbr 1000 ------- 1 0.0 3.0 60 60
- 0.7 0 1 cbr 1000 ------- 1 0.0 3.0 60 60
r 0.703 0 1 cbr 1000 ------- 1 0.0 3.0 58 58
+ 0.703 1 2 cbr 1000 ------- 1 0.0 3.0 58 58
- 0.703 1 2 cbr 1000 ------- 1 0.0 3.0 58 58
r 0.706 1 2 cbr 1000 ------- 1 0.0 3.0 56 56
+ 0.706 2 3 cbr 1000 ------- 1 0.0 3.0 56 56
- 0.706 2 3 cbr 1000 ------- 1 0.0 3.0 56 56
r 0.709 2 3 cbr 1000 ------- 1 0.0 3.0 54 54
+ 0.71 0 1 cbr 1000 ------- 1 0.0 3.0 61 61
- 0.71 0 1 cbr 1000 ------- 1 0.0 3.0 61 61
r 0.713 0 1 cbr 1000 ------- 1 0.0 3.0 59 59
+ 0.713 1 2 cbr 1000 ------- 1 0.0 3.0 59 59
- 0.713 1 2 cbr 1000 ------- 1 0.0 3.0 59 59
r 0.716 1 2 cbr 1000 ------- 1 0.0 3.0 57 57
+ 0.716 2 3 cbr 1000 ------- 1 0.0 3.0 57 57
- 0.716 2 3 cbr 1000 ------- 1 0.0 3.0 57 57
r 0.719 2 3 cbr 1000 ------- 1 0.0 3.0 55 55
+ 0.72 0 1 cbr 1000 ------- 1 0.0 3.0 62 62
- 0.72 0 1 cbr 1000 ------- 1 0.0 3.0 62 62
r 0.723 0 1 cbr 1000 ------- 1 0.0 3.0 60 60
+ 0.723 1 2 cbr 1000 ------- 1 0.0 3.0 60 60
- 0.723 1 2 cbr 1000 ------- 1 0.0 3.0 60 60
r 0.726 1 2 cbr 1000 ------- 1 0.0 3.0 58 58
+ 0.726 2 3 cbr 1000 ------- 1 0.0 3.0 58 58
- 0.726 2 3 cbr 1000 ------- 1 0.0 3.0 58 58
r 0.729 2 3 cbr 1000 ------- 1 0.0 3.0 56 56
+ 0.73 0 1 cbr 1000 ------- 1 0.0 3.0 63 63
- 0.73 0 1 cbr 1000 ------- 1 0.0 3.0 63 63
r 0.733 0 1 cbr 1000 ------- 1 0.0 3.0 61 61
+ 0.733 1 2 cbr 1000 ------- 1 0.0 3.0 61 61
- 0.733 1 2 cbr 1000 ------- 1 0.0 3.0 61 61
r 0.736 1 2 cbr 1000 ------- 1 0.0 3.0 59 59
+ 0.736 2 3 cbr 1000 ------- 1 0.0 3.0 59 59
- 0.736 2 3 cbr 1000 ------- 1 0.0 3.0 59 59
r 0.739 2 3 cbr 1000 ------- 1 0.0 3.0 57 57
+ 0.74 0 1 cbr 1000 ------- 1 0.0 3.0 64 64
- 0.74 0 1 cbr 1000 ------- 1 0.0 3.0 64 64
r 0.743 0 1 cbr 1000 ------- 1 0.0 3.0 62 62
+ 0.743 1 2 cbr 1000 ------- 1 0.0 3.0 62 62
- 0.743 1 2 cbr 1000 ------- 1 0.0 3.0 62 62
r 0.746 1 2 cbr 1000 ------- 1 0.0 3.0 60 60
+ 0.746 2 3 cbr 1000 ------- 1 0.0 3.0 60 60
- 0.746 2 3 cbr 1000 ------- 1 0.0 3.0 60 60
r 0.749 2 3 cbr 1000 ------- 1 0.0 3.0 58 58
+ 0.75 0 1 cbr 1000 ------- 1 0.0 3.0 65 65
- 0.75 0 1 cbr 1000 ------- 1 0.0 3.0 65 65
r 0.753 0 1 cbr 1000 ------- 1 0.0 3.0 63 63
+ 0.753 1 2 cbr 1000 ------- 1 0.0 3.0 63 63
- 0.753 1 2 cbr 1000 ------- 1 0.0 3.0 63 63
r 0.756 1 2 cbr 1000 ------- 1 0.0 3.0 61 61
+ 0.756 2 3 cbr 1000 ------- 1 0.0 3.0 61 61
- 0.756 2 3 cbr 1000 ------- 1 0.0 3.0 61 61
r 0.759 2 3 cbr 1000 ------- 1 0.0 3.0 59 59
+ 0.76 0 1 cbr 1000 ------- 1 0.0 3.0 66 66
- 0.76 0 1 cbr 1000 ------- 1 0.0 3.0 66 66
r 0.763 0 1 cbr 1000 ------- 1 0.0 3.0 64 64
+ 0.763 1 2 cbr 1000 ------- 1 0.0 3.0 64 64
- 0.763 1 2 cbr 1000 ------- 1 0.0 3.0 64 64
r 0.766 1 2 cbr 1000 ------- 1 0.0 3.0 62 62
+ 0.766 2 3 cbr 1000 ------- 1 0.0 3.0 62 62
- 0.766 2 3 cbr 1000 ------- 1 0.0 3.0 62 62
r 0.769 2 3 cbr 1000 ------- 1 0.0 3.0 60 60
+ 0.77 0 1 cbr 1000 ------- 1 0.0 3.0 67 67
- 0.77 0 1 cbr 1000 ------- 1 0.0 3.0 67 67
r 0.773 0 1 cbr 1000 ------- 1 0.0 3.0 65 65
+ 0.773 1 2 cbr 1000 ------- 1 0.0 3.0 65 65
- 0.773 1 2 cbr 1000 ------- 1 0.0 3.0 65 65
r 0.776 1 2 cbr 1000 ------- 1 0.0 3.0 63 63
+ 0.776 2 3 cbr 1000 ------- 1 0.0 3.0 63 63
- 0.776 2 3 cbr 1000 ------- 1 0.0 3.0 63 63
r 0.779 2 3 cbr 1000 ------- 1 0.0 3.0 61 61
+ 0.78 0 1 cbr 1000 ------- 1 0.0 3.0 68 68
- 0.78 0 1 cbr 1000 ------- 1 0.0 3.0 68 68
r 0.783 0 1 cbr 1000 ------- 1 0.0 3.0 66 66
+ 0.783 1 2 cbr 1000 ------- 1 0.0 3.0 66 66
- 0.783 1 2 cbr 1000 ------- 1 0.0 3.0 66 66
r 0.786 1 2 cbr 1000 ------- 1 0.0 3.0 64 64
+ 0.786 2 3 cbr 1000 ------- 1 0.0 3.0 64 64
- 0.786 2 3 cbr 1000 ------- 1 0.0 3.0 64 64
r 0.789 2 3 cbr 1000 ------- 1 0.0 3.0 62 62
+ 0.79 0 1 cbr 1000 ------- 1 0.0 3.0 69 69
- 0.79 0 1 cbr 1000 ------- 1 0.0 3.0 69 69
r 0.793 0 1 cbr 1000 ------- 1 0.0 3.0 67 67
+ 0.793 1 2 cbr 1000 ------- 1 0.0 3.0 67 67
- 0.793 1 2 cbr 1000 ------- 1 0.0 3.0 67 67
r 0.796 1 2 cbr 1000 ------- 1 0.0 3.0 65 65
+ 0.796 2 3 cbr 1000 ------- 1 0.0 3.0 65 65
- 0.796 2 3 cbr 1000 ------- 1 0.0 3.0 65 65
r 0.799 2 3 cbr 1000 ------- 1 0.0 3.0 63 63
+ 0.8 0 1 cbr 1000 ------- 1 0.0 3.0 70 70
- 0.8 0 1 cbr 1000 ------- 1 0.0 3.0 70 70
r 0.803 0 1 cbr 1000 ------- 1 0.0 3.0 68 68
+ 0.803 1 2 cbr 1000 ------- 1 0.0 3.0 68 68
- 0.803 1 2 cbr 1000 ------- 1 0.0 3.0 68 68
r 0.806 1 2 cbr 1000 ------- 1 0.0 3.0 66 66
+ 0.806 2 3 cbr 1000 ------- 1 0.0 3.0 66 66
- 0.806 2 3 cbr 1000 ------- 1 0.0 3.0 66 66
r 0.809 2 3 cbr 1000 ------- 1 0.0 3.0 64 64
+ 0.81 0 1 cbr 1000 ------- 1 0.0 3.0 71 71
- 0.81 0 1 cbr 1000 ------- 1 0.0 3.0 71 71
r 0.813 0 1 cbr 1000 ------- 1 0.0 3.0 69 69
+ 0.813 1 2 cbr 1000 ------- 1 0.0 3.0 69 69
- 0.813 1 2 cbr 1000 ------- 1 0.0 3.0 69 69
r 0.816 1 2 cbr 1000 ------- 1 0.0 3.0 67 67
+ 0.816 2 3 cbr 1000 ------- 1 0.0 3.0 67 67
- 0.816 2 3 cbr 1000 ------- 1 0.0 3.0 67 67
r 0.819 2 3 cbr 1000 ------- 1 0.0 3.0 65 65
+ 0.82 0 1 cbr 1000 ------- 1 0.0 3.0 72 72
- 0.82 0 1 cbr 1000 ------- 1 0.0 3.0 72 72
r 0.823 0 1 cbr 1000 ------- 1 0.0 3.0 70 70
+ 0.823 1 2 cbr 1000 ------- 1 0.0 3.0 70 70
- 0.823 1 2 cbr 1000 ------- 1 0.0 3.0 70 70
r 0.826 1 2 cbr 1000 ------- 1 0.0 3.0 68 68
+ 0.826 2 3 cbr 1000 ------- 1 0.0 3.0 68 68
- 0.826 2 3 cbr 1000 ------- 1 0.0 3.0 68 68
r 0.829 2 3 cbr 1000 ------- 1 0.0 3.0 66 66
+ 0.83 0 1 cbr 1000 ------- 1 0.0 3.0 73 73
- 0.83 0 1 cbr 1000 ------- 1 0.0 3.0 73 73
r 0.833 0 1 cbr 1000 ------- 1 0.0 3.0 71 71
+ 0.833 1 2 cbr 1000 ------- 1 0.0 3.0 71 71
- 0.833 1 2 cbr 1000 ------- 1 0.0 3.0 71 71
r 0.836 1 2 cbr 1000 ------- 1 0.0 3.0 69 69
+ 0.836 2 3 cbr 1000 ------- 1 0.0 3.0 69 69
- 0.836 2 3 cbr 1000 ------- 1 0.0 3.0 69 69
r 0.839 2 3 cbr 1000 ------- 1 0.0 3.0 67 67
+ 0.84 0 1 cbr 1000 ------- 1 0.0 3.0 74 74
- 0.84 0 1 cbr 1000 ------- 1 0.0 3.0 74 74
r 0.843 0 1 cbr 1000 ------- 1 0.0 3.0 72 72
+ 0.843 1 2 cbr 1000 ------- 1 0.0 3.0 72 72
- 0.843 1 2 cbr 1000 ------- 1 0.0 3.0 72 72
r 0.846 1 2 cbr 1000 ------- 1 0.0 3.0 70 70
+ 0.846 2 3 cbr 1000 ------- 1 0.0 3.0 70 70
- 0.846 2 3 cbr 1000 ------- 1 0.0 3.0 70 70
r 0.849 2 3 cbr 1000 ------- 1 0.0 3.0 68 68
+ 0.85 0 1 cbr 1000 ------- 1 0.0 3.0 75 75
- 0.85 0 1 cbr 1000 ------- 1 0.0 3.0 75 75
r 0.853 0 1 cbr 1000 ------- 1 0.0 3.0 73 73
+ 0.853 1 2 cbr 1000 ------- 1 0.0 3.0 73 73
- 0.853 1 2 cbr 1000 ------- 1 0.0 3.0 73 73
r 0.856 1 2 cbr 1000 ------- 1 0.0 3.0 71 71
+ 0.856 2 3 cbr 1000 ------- 1 0.0 3.0 71 71
- 0.856 2 3 cbr 1000 ------- 1 0.0 3.0 71 71
r 0.859 2 3 cbr 1000 ------- 1 0.0 3.0 69 69
+ 0.86 0 1 cbr 1000 ------- 1 0.0 3.0 76 76
- 0.86 0 1 cbr 1000 ------- 1 0.0 3.0 76 76
r 0.863 0 1 cbr 1000 ------- 1 0.0 3.0 74 74
+ 0.863 1 2 cbr 1000 ------- 1 0.0 3.0 74 74
- 0.863 1 2 cbr 1000 ------- 1 0.0 3.0 74 74
r 0.866 1 2 cbr 1000 ------- 1 0.0 3.0 72 72
+ 0.866 2 3 cbr 1000 ------- 1 0.0 3.0 72 72
- 0.866 2 3 cbr 1000 ------- 1 0.0 3.0 72 72
r 0.869 2 3 cbr 1000 ------- 1 0.0 3.0 70 70
+ 0.87 0 1 cbr 1000 ------- 1 0.0 3.0 77 77
- 0.87 0 1 cbr 1000 ------- 1 0.0 3.0 77 77
r 0.873 0 1 cbr 1000 ------- 1 0.0 3.0 75 75
+ 0.873 1 2 cbr 1000 ------- 1 0.0 3.0 75 75
- 0.873 1 2 cbr 1000 ------- 1 0.0 3.0 75 75