+ 0.1 0 2 cbr 1000 ------- 1 0.0 3.0 0 0
- 0.1 0 2 cbr 1000 ------- 1 0.0 3.0 0 0
+ 0.11 0 2 cbr 1000 ------- 1 0.0 3.0 1 1
- 0.11 0 2 cbr 1000 ------- 1 0.0 3.0 1 1
+ 0.12 0 2 cbr 1000 ------- 1 0.0 3.0 2 2
- 0.12 0 2 cbr 1000 ------- 1 0.0 3.0 2 2
r 0.124 0 2 cbr 1000 ------- 1 0.0 3.0 0 0
+ 0.124 2 3 cbr 1000 ------- 1 0.0 3.0 0 0
- 0.124 2 3 cbr 1000 ------- 1 0.0 3.0 0 0
+ 0.13 0 2 cbr 1000 ------- 1 0.0 3.0 3 3
- 0.13 0 2 cbr 1000 ------- 1 0.0 3.0 3 3
r 0.134 0 2 cbr 1000 ------- 1 0.0 3.0 1 1
+ 0.134 2 3 cbr 1000 ------- 1 0.0 3.0 1 1
- 0.134 2 3 cbr 1000 ------- 1 0.0 3.0 1 1
+ 0.14 0 2 cbr 1000 ------- 1 0.0 3.0 4 4
- 0.14 0 2 cbr 1000 ------- 1 0.0 3.0 4 4
r 0.144 0 2 cbr 1000 ------- 1 0.0 3.0 2 2
+ 0.144 2 3 cbr 1000 ------- 1 0.0 3.0 2 2
- 0.144 2 3 cbr 1000 ------- 1 0.0 3.0 2 2
r 0.148 2 3 cbr 1000 ------- 1 0.0 3.0 0 0
+ 0.15 0 2 cbr 1000 ------- 1 0.0 3.0 5 5
- 0.15 0 2 cbr 1000 ------- 1 0.0 3.0 5 5
r 0.154 0 2 cbr 1000 ------- 1 0.0 3.0 3 3
+ 0.154 2 3 cbr 1000 ------- 1 0.0 3.0 3 3
- 0.154 2 3 cbr 1000 ------- 1 0.0 3.0 3 3
r 0.158 2 3 cbr 1000 ------- 1 0.0 3.0 1 1
+ 0.16 0 2 cbr 1000 ------- 1 0.0 3.0 6 6
- 0.16 0 2 cbr 1000 ------- 1 0.0 3.0 6 6
r 0.164 0 2 cbr 1000 ------- 1 0.0 3.0 4 4
+ 0.164 2 3 cbr 1000 ------- 1 0.0 3.0 4 4
- 0.164 2 3 cbr 1000 ------- 1 0.0 3.0 4 4
r 0.168 2 3 cbr 1000 ------- 1 0.0 3.0 2 2
+ 0.17 0 2 cbr 1000 ------- 1 0.0 3.0 7 7
- 0.17 0 2 cbr 1000 ------- 1 0.0 3.0 7 7
r 0.174 0 2 cbr 1000 ------- 1 0.0 3.0 5 5
+ 0.174 2 3 cbr 1000 ------- 1 0.0 3.0 5 5
- 0.174 2 3 cbr 1000 ------- 1 0.0 3.0 5 5
r 0.178 2 3 cbr 1000 ------- 1 0.0 3.0 3 3
+ 0.18 0 2 cbr 1000 ------- 1 0.0 3.0 8 8
- 0.18 0 2 cbr 1000 ------- 1 0.0 3.0 8 8
r 0.184 0 2 cbr 1000 ------- 1 0.0 3.0 6 6
+ 0.184 2 3 cbr 1000 ------- 1 0.0 3.0 6 6
- 0.184 2 3 cbr 1000 ------- 1 0.0 3.0 6 6
r 0.188 2 3 cbr 1000 ------- 1 0.0 3.0 4 4
+ 0.19 0 2 cbr 1000 ------- 1 0.0 3.0 9 9
- 0.19 0 2 cbr 1000 ------- 1 0.0 3.0 9 9
r 0.194 0 2 cbr 1000 ------- 1 0.0 3.0 7 7
+ 0.194 2 3 cbr 1000 ------- 1 0.0 3.0 7 7
- 0.194 2 3 cbr 1000 ------- 1 0.0 3.0 7 7
r 0.198 2 3 cbr 1000 ------- 1 0.0 3.0 5 5
+ 0.2 0 2 cbr 1000 ------- 1 0.0 3.0 10 10
- 0.2 0 2 cbr 1000 ------- 1 0.0 3.0 10 10
r 0.204 0 2 cbr 1000 ------- 1 0.0 3.0 8 8
+ 0.204 2 3 cbr 1000 ------- 1 0.0 3.0 8 8
- 0.204 2 3 cbr 1000 ------- 1 0.0 3.0 8 8
r 0.208 2 3 cbr 1000 ------- 1 0.0 3.0 6 6
+ 0.21 0 2 cbr 1000 ------- 1 0.0 3.0 11 11
- 0.21 0 2 cbr 1000 ------- 1 0.0 3.0 11 11
r 0.214 0 2 cbr 1000 ------- 1 0.0 3.0 9 9
+ 0.214 2 3 cbr 1000 ------- 1 0.0 3.0 9 9
- 0.214 2 3 cbr 1000 ------- 1 0.0 3.0 9 9
r 0.218 2 3 cbr 1000 ------- 1 0.0 3.0 7 7
+ 0.22 0 2 cbr 1000 ------- 1 0.0 3.0 12 12
- 0.22 0 2 cbr 1000 ------- 1 0.0 3.0 12 12
r 0.224 0 2 cbr 1000 ------- 1 0.0 3.0 10 10
+ 0.224 2 3 cbr 1000 ------- 1 0.0 3.0 10 10
- 0.224 2 3 cbr 1000 ------- 1 0.0 3.0 10 10
r 0.228 2 3 cbr 1000 ------- 1 0.0 3.0 8 8
+ 0.23 0 2 cbr 1000 ------- 1 0.0 3.0 13 13
- 0.23 0 2 cbr 1000 ------- 1 0.0 3.0 13 13
r 0.234 0 2 cbr 1000 ------- 1 0.0 3.0 11 11
+ 0.234 2 3 cbr 1000 ------- 1 0.0 3.0 11 11
- 0.234 2 3 cbr 1000 ------- 1 0.0 3.0 11 11
r 0.238 2 3 cbr 1000 ------- 1 0.0 3.0 9 9
+ 0.24 0 2 cbr 1000 ------- 1 0.0 3.0 14 14
- 0.24 0 2 cbr 1000 ------- 1 0.0 3.0 14 14
r 0.244 0 2 cbr 1000 ------- 1 0.0 3.0 12 12
+ 0.244 2 3 cbr 1000 ------- 1 0.0 3.0 12 12
- 0.244 2 3 cbr 1000 ------- 1 0.0 3.0 12 12
r 0.248 2 3 cbr 1000 ------- 1 0.0 3.0 10 10
+ 0.25 0 2 cbr 1000 ------- 1 0.0 3.0 15 15
- 0.25 0 2 cbr 1000 ------- 1 0.0 3.0 15 15
r 0.254 0 2 cbr 1000 ------- 1 0.0 3.0 13 13
+ 0.254 2 3 cbr 1000 ------- 1 0.0 3.0 13 13
- 0.254 2 3 cbr 1000 ------- 1 0.0 3.0 13 13
r 0.258 2 3 cbr 1000 ------- 1 0.0 3.0 11 11
+ 0.26 0 2 cbr 1000 ------- 1 0.0 3.0 16 16
- 0.26 0 2 cbr 1000 ------- 1 0.0 3.0 16 16
r 0.264 0 2 cbr 1000 ------- 1 0.0 3.0 14 14
+ 0.264 2 3 cbr 1000 ------- 1 0.0 3.0 14 14
- 0.264 2 3 cbr 1000 ------- 1 0.0 3.0 14 14
r 0.268 2 3 cbr 1000 ------- 1 0.0 3.0 12 12
+ 0.27 0 2 cbr 1000 ------- 1 0.0 3.0 17 17
- 0.27 0 2 cbr 1000 ------- 1 0.0 3.0 17 17
r 0.274 0 2 cbr 1000 ------- 1 0.0 3.0 15 15
+ 0.274 2 3 cbr 1000 ------- 1 0.0 3.0 15 15
- 0.274 2 3 cbr 1000 ------- 1 0.0 3.0 15 15
r 0.278 2 3 cbr 1000 ------- 1 0.0 3.0 13 13
+ 0.28 0 2 cbr 1000 ------- 1 0.0 3.0 18 18
- 0.28 0 2 cbr 1000 ------- 1 0.0 3.0 18 18
r 0.284 0 2 cbr 1000 ------- 1 0.0 3.0 16 16
+ 0.284 2 3 cbr 1000 ------- 1 0.0 3.0 16 16
- 0.284 2 3 cbr 1000 ------- 1 0.0 3.0 16 16
r 0.288 2 3 cbr 1000 ------- 1 0.0 3.0 14 14
+ 0.29 0 2 cbr 1000 ------- 1 0.0 3.0 19 19
- 0.29 0 2 cbr 1000 ------- 1 0.0 3.0 19 19
r 0.294 0 2 cbr 1000 ------- 1 0.0 3.0 17 17
+ 0.294 2 3 cbr 1000 ------- 1 0.0 3.0 17 17
- 0.294 2 3 cbr 1000 ------- 1 0.0 3.0 17 17
r 0.298 2 3 cbr 1000 ------- 1 0.0 3.0 15 15
+ 0.3 0 2 cbr 1000 ------- 1 0.0 3.0 20 20
- 0.3 0 2 cbr 1000 ------- 1 0.0 3.0 20 20
r 0.304 0 2 cbr 1000 ------- 1 0.0 3.0 18 18
+ 0.304 2 3 cbr 1000 ------- 1 0.0 3.0 18 18
- 0.304 2 3 cbr 1000 ------- 1 0.0 3.0 18 18
r 0.308 2 3 cbr 1000 ------- 1 0.0 3.0 16 16
+ 0.31 0 2 cbr 1000 ------- 1 0.0 3.0 21 21
- 0.31 0 2 cbr 1000 ------- 1 0.0 3.0 21 21
r 0.314 0 2 cbr 1000 ------- 1 0.0 3.0 19 19
+ 0.314 2 3 cbr 1000 ------- 1 0.0 3.0 19 19
- 0.314 2 3 cbr 1000 ------- 1 0.0 3.0 19 19
r 0.318 2 3 cbr 1000 ------- 1 0.0 3.0 17 17
+ 0.32 0 2 cbr 1000 ------- 1 0.0 3.0 22 22
- 0.32 0 2 cbr 1000 ------- 1 0.0 3.0 22 22
r 0.324 0 2 cbr 1000 ------- 1 0.0 3.0 20 20
+ 0.324 2 3 cbr 1000 ------- 1 0.0 3.0 20 20
- 0.324 2 3 cbr 1000 ------- 1 0.0 3.0 20 20
r 0.328 2 3 cbr 1000 ------- 1 0.0 3.0 18 18
+ 0.33 0 2 cbr 1000 ------- 1 0.0 3.0 23 23
- 0.33 0 2 cbr 1000 ------- 1 0.0 3.0 23 23
r 0.334 0 2 cbr 1000 ------- 1 0.0 3.0 21 21
+ 0.334 2 3 cbr 1000 ------- 1 0.0 3.0 21 21
- 0.334 2 3 cbr 1000 ------- 1 0.0 3.0 21 21
r 0.338 2 3 cbr 1000 ------- 1 0.0 3.0 19 19
+ 0.34 0 2 cbr 1000 ------- 1 0.0 3.0 24 24
- 0.34 0 2 cbr 1000 ------- 1 0.0 3.0 24 24
r 0.344 0 2 cbr 1000 ------- 1 0.0 3.0 22 22
+ 0.344 2 3 cbr 1000 ------- 1 0.0 3.0 22 22
- 0.344 2 3 cbr 1000 ------- 1 0.0 3.0 22 22
r 0.348 2 3 cbr 1000 ------- 1 0.0 3.0 20 20
+ 0.35 0 2 cbr 1000 ------- 1 0.0 3.0 25 25
- 0.35 0 2 cbr 1000 ------- 1 0.0 3.0 25 25
r 0.354 0 2 cbr 1000 ------- 1 0.0 3.0 23 23
+ 0.354 2 3 cbr 1000 ------- 1 0.0 3.0 23 23
- 0.354 2 3 cbr 1000 ------- 1 0.0 3.0 23 23
r 0.358 2 3 cbr 1000 ------- 1 0.0 3.0 21 21
+ 0.36 0 2 cbr 1000 ------- 1 0.0 3.0 26 26
- 0.36 0 2 cbr 1000 ------- 1 0.0 3.0 26 26
r 0.364 0 2 cbr 1000 ------- 1 0.0 3.0 24 24
+ 0.364 2 3 cbr 1000 ------- 1 0.0 3.0 24 24
- 0.364 2 3 cbr 1000 ------- 1 0.0 3.0 24 24
r 0.368 2 3 cbr 1000 ------- 1 0.0 3.0 22 22
+ 0.37 0 2 cbr 1000 ------- 1 0.0 3.0 27 27
- 0.37 0 2 cbr 1000 ------- 1 0.0 3.0 27 27
r 0.374 0 2 cbr 1000 ------- 1 0.0 3.0 25 25
+ 0.374 2 3 cbr 1000 ------- 1 0.0 3.0 25 25
- 0.374 2 3 cbr 1000 ------- 1 0.0 3.0 25 25
r 0.378 2 3 cbr 1000 ------- 1 0.0 3.0 23 23
+ 0.38 0 2 cbr 1000 ------- 1 0.0 3.0 28 28
- 0.38 0 2 cbr 1000 ------- 1 0.0 3.0 28 28
r 0.384 0 2 cbr 1000 ------- 1 0.0 3.0 26 26
+ 0.384 2 3 cbr 1000 ------- 1 0.0 3.0 26 26
- 0.384 2 3 cbr 1000 ------- 1 0.0 3.0 26 26
r 0.388 2 3 cbr 1000 ------- 1 0.0 3.0 24 24
+ 0.39 0 2 cbr 1000 ------- 1 0.0 3.0 29 29
- 0.39 0 2 cbr 1000 ------- 1 0.0 3.0 29 29
r 0.394 0 2 cbr 1000 ------- 1 0.0 3.0 27 27
+ 0.394 2 3 cbr 1000 ------- 1 0.0 3.0 27 27
- 0.394 2 3 cbr 1000 ------- 1 0.0 3.0 27 27
r 0.398 2 3 cbr 1000 ------- 1 0.0 3.0 25 25
+ 0.4 0 2 cbr 1000 ------- 1 0.0 3.0 30 30
- 0.4 0 2 cbr 1000 ------- 1 0.0 3.0 30 30
r 0.404 0 2 cbr 1000 ------- 1 0.0 3.0 28 28
+ 0.404 2 3 cbr 1000 ------- 1 0.0 3.0 28 28
- 0.404 2 3 cbr 1000 ------- 1 0.0 3.0 28 28
r 0.408 2 3 cbr 1000 ------- 1 0.0 3.0 26 26
+ 0.41 0 2 cbr 1000 ------- 1 0.0 3.0 31 31
- 0.41 0 2 cbr 1000 ------- 1 0.0 3.0 31 31
r 0.414 0 2 cbr 1000 ------- 1 0.0 3.0 29 29
+ 0.414 2 3 cbr 1000 ------- 1 0.0 3.0 29 29
- 0.414 2 3 cbr 1000 ------- 1 0.0 3.0 29 29
r 0.418 2 3 cbr 1000 ------- 1 0.0 3.0 27 27
+ 0.42 0 2 cbr 1000 ------- 1 0.0 3.0 32 32
- 0.42 0 2 cbr 1000 ------- 1 0.0 3.0 32 32
r 0.424 0 2 cbr 1000 ------- 1 0.0 3.0 30 30
+ 0.424 2 3 cbr 1000 ------- 1 0.0 3.0 30 30
- 0.424 2 3 cbr 1000 ------- 1 0.0 3.0 30 30
r 0.428 2 3 cbr 1000 ------- 1 0.0 3.0 28 28
+ 0.43 0 2 cbr 1000 ------- 1 0.0 3.0 33 33
- 0.43 0 2 cbr 1000 ------- 1 0.0 3.0 33 33
r 0.434 0 2 cbr 1000 ------- 1 0.0 3.0 31 31
+ 0.434 2 3 cbr 1000 ------- 1 0.0 3.0 31 31
- 0.434 2 3 cbr 1000 ------- 1 0.0 3.0 31 31
r 0.438 2 3 cbr 1000 ------- 1 0.0 3.0 29 29
+ 0.44 0 2 cbr 1000 ------- 1 0.0 3.0 34 34
- 0.44 0 2 cbr 1000 ------- 1 0.0 3.0 34 34
r 0.444 0 2 cbr 1000 ------- 1 0.0 3.0 32 32
+ 0.444 2 3 cbr 1000 ------- 1 0.0 3.0 32 32
- 0.444 2 3 cbr 1000 ------- 1 0.0 3.0 32 32
r 0.448 2 3 cbr 1000 ------- 1 0.0 3.0 30 30
+ 0.45 0 2 cbr 1000 ------- 1 0.0 3.0 35 35
- 0.45 0 2 cbr 1000 ------- 1 0.0 3.0 35 35
r 0.454 0 2 cbr 1000 ------- 1 0.0 3.0 33 33
+ 0.454 2 3 cbr 1000 ------- 1 0.0 3.0 33 33
- 0.454 2 3 cbr 1000 ------- 1 0.0 3.0 33 33
r 0.458 2 3 cbr 1000 ------- 1 0.0 3.0 31 31
+ 0.46 0 2 cbr 1000 ------- 1 0.0 3.0 36 36
- 0.46 0 2 cbr 1000 ------- 1 0.0 3.0 36 36
r 0.464 0 2 cbr 1000 ------- 1 0.0 3.0 34 34
+ 0.464 2 3 cbr 1000 ------- 1 0.0 3.0 34 34
- 0.464 2 3 cbr 1000 ------- 1 0.0 3.0 34 34
r 0.468 2 3 cbr 1000 ------- 1 0.0 3.0 32 32
+ 0.47 0 2 cbr 1000 ------- 1 0.0 3.0 37 37
- 0.47 0 2 cbr 1000 ------- 1 0.0 3.0 37 37
r 0.474 0 2 cbr 1000 ------- 1 0.0 3.0 35 35
+ 0.474 2 3 cbr 1000 ------- 1 0.0 3.0 35 35
- 0.474 2 3 cbr 1000 ------- 1 0.0 3.0 35 35
r 0.478 2 3 cbr 1000 ------- 1 0.0 3.0 33 33
+ 0.48 0 2 cbr 1000 ------- 1 0.0 3.0 38 38
- 0.48 0 2 cbr 1000 ------- 1 0.0 3.0 38 38
r 0.484 0 2 cbr 1000 ------- 1 0.0 3.0 36 36
+ 0.484 2 3 cbr 1000 ------- 1 0.0 3.0 36 36
- 0.484 2 3 cbr 1000 ------- 1 0.0 3.0 36 36
r 0.488 2 3 cbr 1000 ------- 1 0.0 3.0 34 34
+ 0.49 0 2 cbr 1000 ------- 1 0.0 3.0 39 39
- 0.49 0 2 cbr 1000 ------- 1 0.0 3.0 39 39
r 0.494 0 2 cbr 1000 ------- 1 0.0 3.0 37 37
+ 0.494 2 3 cbr 1000 ------- 1 0.0 3.0 37 37
- 0.494 2 3 cbr 1000 ------- 1 0.0 3.0 37 37
r 0.498 2 3 cbr 1000 ------- 1 0.0 3.0 35 35
+ 0.5 0 2 cbr 1000 ------- 1 0.0 3.0 40 40
- 0.5 0 2 cbr 1000 ------- 1 0.0 3.0 40 40
r 0.504 0 2 cbr 1000 ------- 1 0.0 3.0 38 38
+ 0.504 2 3 cbr 1000 ------- 1 0.0 3.0 38 38
- 0.504 2 3 cbr 1000 ------- 1 0.0 3.0 38 38
r 0.508 2 3 cbr 1000 ------- 1 0.0 3.0 36 36
+ 0.51 0 2 cbr 1000 ------- 1 0.0 3.0 41 41
- 0.51 0 2 cbr 1000 ------- 1 0.0 3.0 41 41
r 0.514 0 2 cbr 1000 ------- 1 0.0 3.0 39 39
+ 0.514 2 3 cbr 1000 ------- 1 0.0 3.0 39 39
- 0.514 2 3 cbr 1000 ------- 1 0.0 3.0 39 39
r 0.518 2 3 cbr 1000 ------- 1 0.0 3.0 37 37
+ 0.52 0 2 cbr 1000 ------- 1 0.0 3.0 42 42
- 0.52 0 2 cbr 1000 ------- 1 0.0 3.0 42 42
r 0.524 0 2 cbr 1000 ------- 1 0.0 3.0 40 40
+ 0.524 2 3 cbr 1000 ------- 1 0.0 3.0 40 40
- 0.524 2 3 cbr 1000 ------- 1 0.0 3.0 40 40
r 0.528 2 3 cbr 1000 ------- 1 0.0 3.0 38 38
+ 0.53 0 2 cbr 1000 ------- 1 0.0 3.0 43 43
- 0.53 0 2 cbr 1000 ------- 1 0.0 3.0 43 43
r 0.534 0 2 cbr 1000 ------- 1 0.0 3.0 41 41
+ 0.534 2 3 cbr 1000 ------- 1 0.0 3.0 41 41
- 0.534 2 3 cbr 1000 ------- 1 0.0 3.0 41 41
r 0.538 2 3 cbr 1000 ------- 1 0.0 3.0 39 39
+ 0.54 0 2 cbr 1000 ------- 1 0.0 3.0 44 44
- 0.54 0 2 cbr 1000 ------- 1 0.0 3.0 44 44
r 0.544 0 2 cbr 1000 ------- 1 0.0 3.0 42 42
+ 0.544 2 3 cbr 1000 ------- 1 0.0 3.0 42 42
- 0.544 2 3 cbr 1000 ------- 1 0.0 3.0 42 42
r 0.548 2 3 cbr 1000 ------- 1 0.0 3.0 40 40
+ 0.55 0 2 cbr 1000 ------- 1 0.0 3.0 45 45
- 0.55 0 2 cbr 1000 ------- 1 0.0 3.0 45 45
r 0.554 0 2 cbr 1000 ------- 1 0.0 3.0 43 43
+ 0.554 2 3 cbr 1000 ------- 1 0.0 3.0 43 43
- 0.554 2 3 cbr 1000 ------- 1 0.0 3.0 43 43
r 0.558 2 3 cbr 1000 ------- 1 0.0 3.0 41 41
+ 0.56 0 2 cbr 1000 ------- 1 0.0 3.0 46 46
- 0.56 0 2 cbr 1000 ------- 1 0.0 3.0 46 46
r 0.564 0 2 cbr 1000 ------- 1 0.0 3.0 44 44
+ 0.564 2 3 cbr 1000 ------- 1 0.0 3.0 44 44
- 0.564 2 3 cbr 1000 ------- 1 0.0 3.0 44 44
r 0.568 2 3 cbr 1000 ------- 1 0.0 3.0 42 42
+ 0.57 0 2 cbr 1000 ------- 1 0.0 3.0 47 47
- 0.57 0 2 cbr 1000 ------- 1 0.0 3.0 47 47
r 0.574 0 2 cbr 1000 ------- 1 0.0 3.0 45 45
+ 0.574 2 3 cbr 1000 ------- 1 0.0 3.0 45 45
- 0.574 2 3 cbr 1000 ------- 1 0.0 3.0 45 45
r 0.578 2 3 cbr 1000 ------- 1 0.0 3.0 43 43
+ 0.58 0 2 cbr 1000 ------- 1 0.0 3.0 48 48
- 0.58 0 2 cbr 1000 ------- 1 0.0 3.0 48 48
r 0.584 0 2 cbr 1000 ------- 1 0.0 3.0 46 46
+ 0.584 2 3 cbr 1000 ------- 1 0.0 3.0 46 46
- 0.584 2 3 cbr 1000 ------- 1 0.0 3.0 46 46
r 0.588 2 3 cbr 1000 ------- 1 0.0 3.0 44 44
+ 0.59 0 2 cbr 1000 ------- 1 0.0 3.0 49 49
- 0.59 0 2 cbr 1000 ------- 1 0.0 3.0 49 49
r 0.594 0 2 cbr 1000 ------- 1 0.0 3.0 47 47
+ 0.594 2 3 cbr 1000 ------- 1 0.0 3.0 47 47
- 0.594 2 3 cbr 1000 ------- 1 0.0 3.0 47 47
r 0.598 2 3 cbr 1000 ------- 1 0.0 3.0 45 45
+ 0.6 0 2 cbr 1000 ------- 1 0.0 3.0 50 50
- 0.6 0 2 cbr 1000 ------- 1 0.0 3.0 50 50
r 0.604 0 2 cbr 1000 ------- 1 0.0 3.0 48 48
+ 0.604 2 3 cbr 1000 ------- 1 0.0 3.0 48 48
- 0.604 2 3 cbr 1000 ------- 1 0.0 3.0 48 48
r 0.608 2 3 cbr 1000 ------- 1 0.0 3.0 46 46
+ 0.61 0 2 cbr 1000 ------- 1 0.0 3.0 51 51
- 0.61 0 2 cbr 1000 ------- 1 0.0 3.0 51 51
r 0.614 0 2 cbr 1000 ------- 1 0.0 3.0 49 49
+ 0.614 2 3 cbr 1000 ------- 1 0.0 3.0 49 49
- 0.614 2 3 cbr 1000 ------- 1 0.0 3.0 49 49
r 0.618 2 3 cbr 1000 ------- 1 0.0 3.0 47 47
+ 0.62 0 2 cbr 1000 ------- 1 0.0 3.0 52 52
- 0.62 0 2 cbr 1000 ------- 1 0.0 3.0 52 52
r 0.624 0 2 cbr 1000 ------- 1 0.0 3.0 50 50
+ 0.624 2 3 cbr 1000 ------- 1 0.0 3.0 50 50
- 0.624 2 3 cbr 1000 ------- 1 0.0 3.0 50 50
r 0.628 2 3 cbr 1000 ------- 1 0.0 3.0 48 48
+ 0.63 0 2 cbr 1000 ------- 1 0.0 3.0 53 53
- 0.63 0 2 cbr 1000 ------- 1 0.0 3.0 53 53
r 0.634 0 2 cbr 1000 ------- 1 0.0 3.0 51 51
+ 0.634 2 3 cbr 1000 ------- 1 0.0 3.0 51 51
- 0.634 2 3 cbr 1000 ------- 1 0.0 3.0 51 51
r 0.638 2 3 cbr 1000 ------- 1 0.0 3.0 49 49
+ 0.64 0 2 cbr 1000 ------- 1 0.0 3.0 54 54
- 0.64 0 2 cbr 1000 ------- 1 0.0 3.0 54 54
r 0.644 0 2 cbr 1000 ------- 1 0.0 3.0 52 52
+ 0.644 2 3 cbr 1000 ------- 1 0.0 3.0 52 52
- 0.644 2 3 cbr 1000 ------- 1 0.0 3.0 52 52
r 0.648 2 3 cbr 1000 ------- 1 0.0 3.0 50 50
+ 0.65 0 2 cbr 1000 ------- 1 0.0 3.0 55 55
- 0.65 0 2 cbr 1000 ------- 1 0.0 3.0 55 55
r 0.654 0 2 cbr 1000 ------- 1 0.0 3.0 53 53
+ 0.654 2 3 cbr 1000 ------- 1 0.0 3.0 53 53
- 0.654 2 3 cbr 1000 ------- 1 0.0 3.0 53 53
r 0.658 2 3 cbr 1000 ------- 1 0.0 3.0 51 51
+ 0.66 0 2 cbr 1000 ------- 1 0.0 3.0 56 56
- 0.66 0 2 cbr 1000 ------- 1 0.0 3.0 56 56
r 0.664 0 2 cbr 1000 ------- 1 0.0 3.0 54 54
+ 0.664 2 3 cbr 1000 ------- 1 0.0 3.0 54 54
- 0.664 2 3 cbr 1000 ------- 1 0.0 3.0 54 54
r 0.668 2 3 cbr 1000 ------- 1 0.0 3.0 52 52
+ 0.67 0 2 cbr 1000 ------- 1 0.0 3.0 57 57
- 0.67 0 2 cbr 1000 ------- 1 0.0 3.0 57 57
r 0.674 0 2 cbr 1000 ------- 1 0.0 3.0 55 55
+ 0.674 2 3 cbr 1000 ------- 1 0.0 3.0 55 55
- 0.674 2 3 cbr 1000 ------- 1 0.0 3.0 55 55
r 0.678 2 3 cbr 1000 ------- 1 0.0 3.0 53 53
+ 0.68 0 2 cbr 1000 ------- 1 0.0 3.0 58 58
- 0.68 0 2 cbr 1000 ------- 1 0.0 3.0 58 58
r 0.684 0 2 cbr 1000 ------- 1 0.0 3.0 56 56
+ 0.684 2 3 cbr 1000 ------- 1 0.0 3.0 56 56
- 0.684 2 3 cbr 1000 ------- 1 0.0 3.0 56 56
r 0.688 2 3 cbr 1000 ------- 1 0.0 3.0 54 54
+ 0.69 0 2 cbr 1000 ------- 1 0.0 3.0 59 59
- 0.69 0 2 cbr 1000 ------- 1 0.0 3.0 59 59
r 0.694 0 2 cbr 1000 ------- 1 0.0 3.0 57 57
+ 0.694 2 3 cbr 1000 ------- 1 0.0 3.0 57 57
- 0.694 2 3 cbr 1000 ------- 1 0.0 3.0 57 57
r 0.698 2 3 cbr 1000 ------- 1 0.0 3.0 55 55
+ 0.7 0 2 cbr 1000 ------- 1 0.0 3.0 60 60
- 0.7 0 2 cbr 1000 ------- 1 0.0 3.0 60 60
r 0.704 0 2 cbr 1000 ------- 1 0.0 3.0 58 58
+ 0.704 2 3 cbr 1000 ------- 1 0.0 3.0 58 58
- 0.704 2 3 cbr 1000 ------- 1 0.0 3.0 58 58
r 0.708 2 3 cbr 1000 ------- 1 0.0 3.0 56 56
+ 0.71 0 2 cbr 1000 ------- 1 0.0 3.0 61 61
- 0.71 0 2 cbr 1000 ------- 1 0.0 3.0 61 61
r 0.714 0 2 cbr 1000 ------- 1 0.0 3.0 59 59
+ 0.714 2 3 cbr 1000 ------- 1 0.0 3.0 59 59
- 0.714 2 3 cbr 1000 ------- 1 0.0 3.0 59 59
r 0.718 2 3 cbr 1000 ------- 1 0.0 3.0 57 57
+ 0.72 0 2 cbr 1000 ------- 1 0.0 3.0 62 62
- 0.72 0 2 cbr 1000 ------- 1 0.0 3.0 62 62
r 0.724 0 2 cbr 1000 ------- 1 0.0 3.0 60 60
+ 0.724 2 3 cbr 1000 ------- 1 0.0 3.0 60 60
- 0.724 2 3 cbr 1000 ------- 1 0.0 3.0 60 60
r 0.728 2 3 cbr 1000 ------- 1 0.0 3.0 58 58
+ 0.73 0 2 cbr 1000 ------- 1 0.0 3.0 63 63
- 0.73 0 2 cbr 1000 ------- 1 0.0 3.0 63 63
r 0.734 0 2 cbr 1000 ------- 1 0.0 3.0 61 61
+ 0.734 2 3 cbr 1000 ------- 1 0.0 3.0 61 61
- 0.734 2 3 cbr 1000 ------- 1 0.0 3.0 61 61
r 0.738 2 3 cbr 1000 ------- 1 0.0 3.0 59 59
+ 0.74 0 2 cbr 1000 ------- 1 0.0 3.0 64 64
- 0.74 0 2 cbr 1000 ------- 1 0.0 3.0 64 64
r 0.744 0 2 cbr 1000 ------- 1 0.0 3.0 62 62
+ 0.744 2 3 cbr 1000 ------- 1 0.0 3.0 62 62
- 0.744 2 3 cbr 1000 ------- 1 0.0 3.0 62 62
r 0.748 2 3 cbr 1000 ------- 1 0.0 3.0 60 60
+ 0.75 0 2 cbr 1000 ------- 1 0.0 3.0 65 65
- 0.75 0 2 cbr 1000 ------- 1 0.0 3.0 65 65
r 0.754 0 2 cbr 1000 ------- 1 0.0 3.0 63 63
+ 0.754 2 3 cbr 1000 ------- 1 0.0 3.0 63 63
- 0.754 2 3 cbr 1000 ------- 1 0.0 3.0 63 63
r 0.758 2 3 cbr 1000 ------- 1 0.0 3.0 61 61
+ 0.76 0 2 cbr 1000 ------- 1 0.0 3.0 66 66
- 0.76 0 2 cbr 1000 ------- 1 0.0 3.0 66 66
r 0.764 0 2 cbr 1000 ------- 1 0.0 3.0 64 64
+ 0.764 2 3 cbr 1000 ------- 1 0.0 3.0 64 64
- 0.764 2 3 cbr 1000 ------- 1 0.0 3.0 64 64
r 0.768 2 3 cbr 1000 ------- 1 0.0 3.0 62 62
+ 0.77 0 2 cbr 1000 ------- 1 0.0 3.0 67 67
- 0.77 0 2 cbr 1000 ------- 1 0.0 3.0 67 67
r 0.774 0 2 cbr 1000 ------- 1 0.0 3.0 65 65
+ 0.774 2 3 cbr 1000 ------- 1 0.0 3.0 65 65
- 0.774 2 3 cbr 1000 ------- 1 0.0 3.0 65 65
r 0.778 2 3 cbr 1000 ------- 1 0.0 3.0 63 63
+ 0.78 0 2 cbr 1000 ------- 1 0.0 3.0 68 68
- 0.78 0 2 cbr 1000 ------- 1 0.0 3.0 68 68
r 0.784 0 2 cbr 1000 ------- 1 0.0 3.0 66 66
+ 0.784 2 3 cbr 1000 ------- 1 0.0 3.0 66 66
- 0.784 2 3 cbr 1000 ------- 1 0.0 3.0 66 66
r 0.788 2 3 cbr 1000 ------- 1 0.0 3.0 64 64
+ 0.79 0 2 cbr 1000 ------- 1 0.0 3.0 69 69
- 0.79 0 2 cbr 1000 ------- 1 0.0 3.0 69 69
r 0.794 0 2 cbr 1000 ------- 1 0.0 3.0 67 67
+ 0.794 2 3 cbr 1000 ------- 1 0.0 3.0 67 67
- 0.794 2 3 cbr 1000 ------- 1 0.0 3.0 67 67
r 0.798 2 3 cbr 1000 ------- 1 0.0 3.0 65 65
+ 0.8 0 2 cbr 1000 ------- 1 0.0 3.0 70 70
- 0.8 0 2 cbr 1000 ------- 1 0.0 3.0 70 70
r 0.804 0 2 cbr 1000 ------- 1 0.0 3.0 68 68
+ 0.804 2 3 cbr 1000 ------- 1 0.0 3.0 68 68
- 0.804 2 3 cbr 1000 ------- 1 0.0 3.0 68 68
r 0.808 2 3 cbr 1000 ------- 1 0.0 3.0 66 66
+ 0.81 0 2 cbr 1000 ------- 1 0.0 3.0 71 71
- 0.81 0 2 cbr 1000 ------- 1 0.0 3.0 71 71
r 0.814 0 2 cbr 1000 ------- 1 0.0 3.0 69 69
+ 0.814 2 3 cbr 1000 ------- 1 0.0 3.0 69 69
- 0.814 2 3 cbr 1000 ------- 1 0.0 3.0 69 69
r 0.818 2 3 cbr 1000 ------- 1 0.0 3.0 67 67
+ 0.82 0 2 cbr 1000 ------- 1 0.0 3.0 72 72
- 0.82 0 2 cbr 1000 ------- 1 0.0 3.0 72 72
r 0.824 0 2 cbr 1000 ------- 1 0.0 3.0 70 70
+ 0.824 2 3 cbr 1000 ------- 1 0.0 3.0 70 70
- 0.824 2 3 cbr 1000 ------- 1 0.0 3.0 70 70
r 0.828 2 3 cbr 1000 ------- 1 0.0 3.0 68 68
+ 0.83 0 2 cbr 1000 ------- 1 0.0 3.0 73 73
- 0.83 0 2 cbr 1000 ------- 1 0.0 3.0 73 73
r 0.834 0 2 cbr 1000 ------- 1 0.0 3.0 71 71
+ 0.834 2 3 cbr 1000 ------- 1 0.0 3.0 71 71
- 0.834 2 3 cbr 1000 ------- 1 0.0 3.0 71 71
r 0.838 2 3 cbr 1000 ------- 1 0.0 3.0 69 69
+ 0.84 0 2 cbr 1000 ------- 1 0.0 3.0 74 74
- 0.84 0 2 cbr 1000 ------- 1 0.0 3.0 74 74
r 0.844 0 2 cbr 1000 ------- 1 0.0 3.0 72 72
+ 0.844 2 3 cbr 1000 ------- 1 0.0 3.0 72 72
- 0.844 2 3 cbr 1000 ------- 1 0.0 3.0 72 72
r 0.848 2 3 cbr 1000 ------- 1 0.0 3.0 70 70
+ 0.85 0 2 cbr 1000 ------- 1 0.0 3.0 75 75
- 0.85 0 2 cbr 1000 ------- 1 0.0 3.0 75 75
r 0.854 0 2 cbr 1000 ------- 1 0.0 3.0 73 73
+ 0.854 2 3 cbr 1000 ------- 1 0.0 3.0 73 73
- 0.854 2 3 cbr 1000 ------- 1 0.0 3.0 73 73
r 0.858 2 3 cbr 1000 ------- 1 0.0 3.0 71 71
+ 0.86 0 2 cbr 1000 ------- 1 0.0 3.0 76 76
- 0.86 0 2 cbr 1000 ------- 1 0.0 3.0 76 76
r 0.864 0 2 cbr 1000 ------- 1 0.0 3.0 74 74
+ 0.864 2 3 cbr 1000 ------- 1 0.0 3.0 74 74
- 0.864 2 3 cbr 1000 ------- 1 0.0 3.0 74 74
r 0.868 2 3 cbr 1000 ------- 1 0.0 3.0 72 72
+ 0.87 0 2 cbr 1000 ------- 1 0.0 3.0 77 77
- 0.87 0 2 cbr 1000 ------- 1 0.0 3.0 77 77
r 0.874 0 2 cbr 1000 ------- 1 0.0 3.0 75 75
+ 0.874 2 3 cbr 1000 ------- 1 0.0 3.0 75 75
- 0.874 2 3 cbr 1000 ------- 1 0.0 3.0 75 75
r 0.878 2 3 cbr 1000 ------- 1 0.0 3.0 73 73
+ 0.88 0 2 cbr 1000 ------- 1 0.0 3.0 78 78
- 0.88 0 2 cbr 1000 ------- 1 0.0 3.0 78 78
r 0.884 0 2 cbr 1000 ------- 1 0.0 3.0 76 76
+ 0.884 2 3 cbr 1000 ------- 1 0.0 3.0 76 76
- 0.884 2 3 cbr 1000 ------- 1 0.0 3.0 76 76
r 0.888 2 3 cbr 1000 ------- 1 0.0 3.0 74 74
+ 0.89 0 2 cbr 1000 ------- 1 0.0 3.0 79 79
- 0.89 0 2 cbr 1000 ------- 1 0.0 3.0 79 79
r 0.894 0 2 cbr 1000 ------- 1 0.0 3.0 77 77
+ 0.894 2 3 cbr 1000 ------- 1 0.0 3.0 77 77
- 0.894 2 3 cbr 1000 ------- 1 0.0 3.0 77 77
r 0.898 2 3 cbr 1000 ------- 1 0.0 3.0 75 75
+ 0.9 0 2 cbr 1000 ------- 1 0.0 3.0 80 80
- 0.9 0 2 cbr 1000 ------- 1 0.0 3.0 80 80
r 0.904 0 2 cbr 1000 ------- 1 0.0 3.0 78 78
+ 0.904 2 3 cbr 1000 ------- 1 0.0 3.0 78 78
- 0.904 2 3 cbr 1000 ------- 1 0.0 3.0 78 78
r 0.908 2 3 cbr 1000 ------- 1 0.0 3.0 76 76
+ 0.91 0 2 cbr 1000 ------- 1 0.0 3.0 81 81
- 0.91 0 2 cbr 1000 ------- 1 0.0 3.0 81 81
r 0.914 0 2 cbr 1000 ------- 1 0.0 3.0 79 79
+ 0.914 2 3 cbr 1000 ------- 1 0.0 3.0 79 79
- 0.914 2 3 cbr 1000 ------- 1 0.0 3.0 79 79
r 0.918 2 3 cbr 1000 ------- 1 0.0 3.0 77 77
+ 0.92 0 2 cbr 1000 ------- 1 0.0 3.0 82 82
- 0.92 0 2 cbr 1000 ------- 1 0.0 3.0 82 82
r 0.924 0 2 cbr 1000 ------- 1 0.0 3.0 80 80
+ 0.924 2 3 cbr 1000 ------- 1 0.0 3.0 80 80
- 0.924 2 3 cbr 1000 ------- 1 0.0 3.0 80 80
r 0.928 2 3 cbr 1000 ------- 1 0.0 3.0 78 78
+ 0.93 0 2 cbr 1000 ------- 1 0.0 3.0 83 83
- 0.93 0 2 cbr 1000 ------- 1 0.0 3.0 83 83
r 0.934 0 2 cbr 1000 ------- 1 0.0 3.0 81 81
+ 0.934 2 3 cbr 1000 ------- 1 0.0 3.0 81 81
- 0.934 2 3 cbr 1000 ------- 1 0.0 3.0 81 81
r 0.938 2 3 cbr 1000 ------- 1 0.0 3.0 79 79
+ 0.94 0 2 cbr 1000 ------- 1 0.0 3.0 84 84
- 0.94 0 2 cbr 1000 ------- 1 0.0 3.0 84 84
r 0.944 0 2 cbr 1000 ------- 1 0.0 3.0 82 82
+ 0.944 2 3 cbr 1000 ------- 1 0.0 3.0 82 82
- 0.944 2 3 cbr 1000 ------- 1 0.0 3.0 82 82
r 0.948 2 3 cbr 1000 ------- 1 0.0 3.0 80 80
+ 0.95 0 2 cbr 1000 ------- 1 0.0 3.0 85 85
- 0.95 0 2 cbr 1000 ------- 1 0.0 3.0 85 85
r 0.954 0 2 cbr 1000 ------- 1 0.0 3.0 83 83
+ 0.954 2 3 cbr 1000 ------- 1 0.0 3.0 83 83
- 0.954 2 3 cbr 1000 ------- 1 0.0 3.0 83 83
r 0.958 2 3 cbr 1000 ------- 1 0.0 3.0 81 81
+ 0.96 0 2 cbr 1000 ------- 1 0.0 3.0 86 86
- 0.96 0 2 cbr 1000 ------- 1 0.0 3.0 86 86
r 0.964 0 2 cbr 1000 ------- 1 0.0 3.0 84 84
+ 0.964 2 3 cbr 1000 ------- 1 0.0 3.0 84 84
- 0.964 2 3 cbr 1000 ------- 1 0.0 3.0 84 84
r 0.968 2 3 cbr 1000 ------- 1 0.0 3.0 82 82
+ 0.97 0 2 cbr 1000 ------- 1 0.0 3.0 87 87
- 0.97 0 2 cbr 1000 ------- 1 0.0 3.0 87 87
r 0.974 0 2 cbr 1000 ------- 1 0.0 3.0 85 85
+ 0.974 2 3 cbr 1000 ------- 1 0.0 3.0 85 85
- 0.974 2 3 cbr 1000 ------- 1 0.0 3.0 85 85
r 0.978 2 3 cbr 1000 ------- 1 0.0 3.0 83 83
+ 0.98 0 2 cbr 1000 ------- 1 0.0 3.0 88 88
- 0.98 0 2 cbr 1000 ------- 1 0.0 3.0 88 88
r 0.984 0 2 cbr 1000 ------- 1 0.0 3.0 86 86
+ 0.984 2 3 cbr 1000 ------- 1 0.0 3.0 86 86
- 0.984 2 3 cbr 1000 ------- 1 0.0 3.0 86 86
r 0.988 2 3 cbr 1000 ------- 1 0.0 3.0 84 84
+ 0.99 0 2 cbr 1000 ------- 1 0.0 3.0 89 89
- 0.99 0 2 cbr 1000 ------- 1 0.0 3.0 89 89
r 0.994 0 2 cbr 1000 ------- 1 0.0 3.0 87 87
+ 0.994 2 3 cbr 1000 ------- 1 0.0 3.0 87 87
- 0.994 2 3 cbr 1000 ------- 1 0.0 3.0 87 87
r 0.998 2 3 cbr 1000 ------- 1 0.0 3.0 85 85
+ 1 0 2 cbr 1000 ------- 1 0.0 3.0 90 90
- 1 0 2 cbr 1000 ------- 1 0.0 3.0 90 90
r 1.004 0 2 cbr 1000 ------- 1 0.0 3.0 88 88
+ 1.004 2 3 cbr 1000 ------- 1 0.0 3.0 88 88
- 1.004 2 3 cbr 1000 ------- 1 0.0 3.0 88 88
r 1.008 2 3 cbr 1000 ------- 1 0.0 3.0 86 86
+ 1.01 0 2 cbr 1000 ------- 1 0.0 3.0 91 91
- 1.01 0 2 cbr 1000 ------- 1 0.0 3.0 91 91
r 1.014 0 2 cbr 1000 ------- 1 0.0 3.0 89 89
+ 1.014 2 3 cbr 1000 ------- 1 0.0 3.0 89 89
- 1.014 2 3 cbr 1000 ------- 1 0.0 3.0 89 89
r 1.018 2 3 cbr 1000 ------- 1 0.0 3.0 87 87
+ 1.02 0 2 cbr 1000 ------- 1 0.0 3.0 92 92
- 1.02 0 2 cbr 1000 ------- 1 0.0 3.0 92 92
r 1.024 0 2 cbr 1000 ------- 1 0.0 3.0 90 90
+ 1.024 2 3 cbr 1000 ------- 1 0.0 3.0 90 90
- 1.024 2 3 cbr 1000 ------- 1 0.0 3.0 90 90
r 1.028 2 3 cbr 1000 ------- 1 0.0 3.0 88 88
+ 1.03 0 2 cbr 1000 ------- 1 0.0 3.0 93 93
- 1.03 0 2 cbr 1000 ------- 1 0.0 3.0 93 93
r 1.034 0 2 cbr 1000 ------- 1 0.0 3.0 91 91
+ 1.034 2 3 cbr 1000 ------- 1 0.0 3.0 91 91
- 1.034 2 3 cbr 1000 ------- 1 0.0 3.0 91 91
r 1.038 2 3 cbr 1000 ------- 1 0.0 3.0 89 89
+ 1.04 0 2 cbr 1000 ------- 1 0.0 3.0 94 94
- 1.04 0 2 cbr 1000 ------- 1 0.0 3.0 94 94
r 1.044 0 2 cbr 1000 ------- 1 0.0 3.0 92 92
+ 1.044 2 3 cbr 1000 ------- 1 0.0 3.0 92 92
- 1.044 2 3 cbr 1000 ------- 1 0.0 3.0 92 92
r 1.048 2 3 cbr 1000 ------- 1 0.0 3.0 90 90
+ 1.05 0 2 cbr 1000 ------- 1 0.0 3.0 95 95
- 1.05 0 2 cbr 1000 ------- 1 0.0 3.0 95 95
r 1.054 0 2 cbr 1000 ------- 1 0.0 3.0 93 93
+ 1.054 2 3 cbr 1000 ------- 1 0.0 3.0 93 93
- 1.054 2 3 cbr 1000 ------- 1 0.0 3.0 93 93
r 1.058 2 3 cbr 1000 ------- 1 0.0 3.0 91 91
+ 1.06 0 2 cbr 1000 ------- 1 0.0 3.0 96 96
- 1.06 0 2 cbr 1000 ------- 1 0.0 3.0 96 96
r 1.064 0 2 cbr 1000 ------- 1 0.0 3.0 94 94
+ 1.064 2 3 cbr 1000 ------- 1 0.0 3.0 94 94
- 1.064 2 3 cbr 1000 ------- 1 0.0 3.0 94 94
r 1.068 2 3 cbr 1000 ------- 1 0.0 3.0 92 92
+ 1.07 0 2 cbr 1000 ------- 1 0.0 3.0 97 97
- 1.07 0 2 cbr 1000 ------- 1 0.0 3.0 97 97
r 1.074 0 2 cbr 1000 ------- 1 0.0 3.0 95 95
+ 1.074 2 3 cbr 1000 ------- 1 0.0 3.0 95 95
- 1.074 2 3 cbr 1000 ------- 1 0.0 3.0 95 95
r 1.078 2 3 cbr 1000 ------- 1 0.0 3.0 93 93
+ 1.08 0 2 cbr 1000 ------- 1 0.0 3.0 98 98
- 1.08 0 2 cbr 1000 ------- 1 0.0 3.0 98 98
r 1.084 0 2 cbr 1000 ------- 1 0.0 3.0 96 96
+ 1.084 2 3 cbr 1000 ------- 1 0.0 3.0 96 96
- 1.084 2 3 cbr 1000 ------- 1 0.0 3.0 96 96
r 1.088 2 3 cbr 1000 ------- 1 0.0 3.0 94 94
+ 1.09 0 2 cbr 1000 ------- 1 0.0 3.0 99 99
- 1.09 0 2 cbr 1000 ------- 1 0.0 3.0 99 99
r 1.094 0 2 cbr 1000 ------- 1 0.0 3.0 97 97
+ 1.094 2 3 cbr 1000 ------- 1 0.0 3.0 97 97
- 1.094 2 3 cbr 1000 ------- 1 0.0 3.0 97 97
r 1.098 2 3 cbr 1000 ------- 1 0.0 3.0 95 95
+ 1.1 0 2 cbr 1000 ------- 1 0.0 3.0 100 100
- 1.1 0 2 cbr 1000 ------- 1 0.0 3.0 100 100
r 1.104 0 2 cbr 1000 ------- 1 0.0 3.0 98 98
+ 1.104 2 3 cbr 1000 ------- 1 0.0 3.0 98 98
- 1.104 2 3 cbr 1000 ------- 1 0.0 3.0 98 98
r 1.108 2 3 cbr 1000 ------- 1 0.0 3.0 96 96
+ 1.11 0 2 cbr 1000 ------- 1 0.0 3.0 101 101
- 1.11 0 2 cbr 1000 ------- 1 0.0 3.0 101 101
r 1.114 0 2 cbr 1000 ------- 1 0.0 3.0 99 99
+ 1.114 2 3 cbr 1000 ------- 1 0.0 3.0 99 99
- 1.114 2 3 cbr 1000 ------- 1 0.0 3.0 99 99
r 1.118 2 3 cbr 1000 ------- 1 0.0 3.0 97 97
+ 1.12 0 2 cbr 1000 ------- 1 0.0 3.0 102 102
- 1.12 0 2 cbr 1000 ------- 1 0.0 3.0 102 102
r 1.124 0 2 cbr 1000 ------- 1 0.0 3.0 100 100
+ 1.124 2 3 cbr 1000 ------- 1 0.0 3.0 100 100
- 1.124 2 3 cbr 1000 ------- 1 0.0 3.0 100 100
r 1.128 2 3 cbr 1000 ------- 1 0.0 3.0 98 98
+ 1.13 0 2 cbr 1000 ------- 1 0.0 3.0 103 103
- 1.13 0 2 cbr 1000 ------- 1 0.0 3.0 103 103
r 1.134 0 2 cbr 1000 ------- 1 0.0 3.0 101 101
+ 1.134 2 3 cbr 1000 ------- 1 0.0 3.0 101 101
- 1.134 2 3 cbr 1000 ------- 1 0.0 3.0 101 101
r 1.138 2 3 cbr 1000 ------- 1 0.0 3.0 99 99
+ 1.14 0 2 cbr 1000 ------- 1 0.0 3.0 104 104
- 1.14 0 2 cbr 1000 ------- 1 0.0 3.0 104 104
r 1.144 0 2 cbr 1000 ------- 1 0.0 3.0 102 102
+ 1.144 2 3 cbr 1000 ------- 1 0.0 3.0 102 102
- 1.144 2 3 cbr 1000 ------- 1 0.0 3.0 102 102
r 1.148 2 3 cbr 1000 ------- 1 0.0 3.0 100 100
+ 1.15 0 2 cbr 1000 ------- 1 0.0 3.0 105 105
- 1.15 0 2 cbr 1000 ------- 1 0.0 3.0 105 105
r 1.154 0 2 cbr 1000 ------- 1 0.0 3.0 103 103
+ 1.154 2 3 cbr 1000 ------- 1 0.0 3.0 103 103
- 1.154 2 3 cbr 1000 ------- 1 0.0 3.0 103 103
r 1.158 2 3 cbr 1000 ------- 1 0.0 3.0 101 101
+ 1.16 0 2 cbr 1000 ------- 1 0.0 3.0 106 106
- 1.16 0 2 cbr 1000 ------- 1 0.0 3.0 106 106
r 1.164 0 2 cbr 1000 ------- 1 0.0 3.0 104 104
+ 1.164 2 3 cbr 1000 ------- 1 0.0 3.0 104 104
- 1.164 2 3 cbr 1000 ------- 1 0.0 3.0 104 104
r 1.168 2 3 cbr 1000 ------- 1 0.0 3.0 102 102
+ 1.17 0 2 cbr 1000 ------- 1 0.0 3.0 107 107
- 1.17 0 2 cbr 1000 ------- 1 0.0 3.0 107 107
r 1.174 0 2 cbr 1000 ------- 1 0.0 3.0 105 105
+ 1.174 2 3 cbr 1000 ------- 1 0.0 3.0 105 105
- 1.174 2 3 cbr 1000 ------- 1 0.0 3.0 105 105
r 1.178 2 3 cbr 1000 ------- 1 0.0 3.0 103 103
+ 1.18 0 2 cbr 1000 ------- 1 0.0 3.0 108 108
- 1.18 0 2 cbr 1000 ------- 1 0.0 3.0 108 108
r 1.184 0 2 cbr 1000 ------- 1 0.0 3.0 106 106
+ 1.184 2 3 cbr 1000 ------- 1 0.0 3.0 106 106
- 1.184 2 3 cbr 1000 ------- 1 0.0 3.0 106 106
r 1.188 2 3 cbr 1000 ------- 1 0.0 3.0 104 104
+ 1.19 0 2 cbr 1000 ------- 1 0.0 3.0 109 109
- 1.19 0 2 cbr 1000 ------- 1 0.0 3.0 109 109
r 1.194 0 2 cbr 1000 ------- 1 0.0 3.0 107 107
+ 1.194 2 3 cbr 1000 ------- 1 0.0 3.0 107 107
- 1.194 2 3 cbr 1000 ------- 1 0.0 3.0 107 107
r 1.198 2 3 cbr 1000 ------- 1 0.0 3.0 105 105
+ 1.2 0 2 cbr 1000 ------- 1 0.0 3.0 110 110
- 1.2 0 2 cbr 1000 ------- 1 0.0 3.0 110 110
r 1.204 0 2 cbr 1000 ------- 1 0.0 3.0 108 108
+ 1.204 2 3 cbr 1000 ------- 1 0.0 3.0 108 108
- 1.204 2 3 cbr 1000 ------- 1 0.0 3.0 108 108
r 1.208 2 3 cbr 1000 ------- 1 0.0 3.0 106 106
+ 1.21 0 2 cbr 1000 ------- 1 0.0 3.0 111 111
- 1.21 0 2 cbr 1000 ------- 1 0.0 3.0 111 111
r 1.214 0 2 cbr 1000 ------- 1 0.0 3.0 109 109
+ 1.214 2 3 cbr 1000 ------- 1 0.0 3.0 109 109
- 1.214 2 3 cbr 1000 ------- 1 0.0 3.0 109 109
r 1.218 2 3 cbr 1000 ------- 1 0.0 3.0 107 107
+ 1.22 0 2 cbr 1000 ------- 1 0.0 3.0 112 112
- 1.22 0 2 cbr 1000 ------- 1 0.0 3.0 112 112
r 1.224 0 2 cbr 1000 ------- 1 0.0 3.0 110 110
+ 1.224 2 3 cbr 1000 ------- 1 0.0 3.0 110 110
- 1.224 2 3 cbr 1000 ------- 1 0.0 3.0 110 110
r 1.228 2 3 cbr 1000 ------- 1 0.0 3.0 108 108
+ 1.23 0 2 cbr 1000 ------- 1 0.0 3.0 113 113
- 1.23 0 2 cbr 1000 ------- 1 0.0 3.0 113 113
r 1.234 0 2 cbr 1000 ------- 1 0.0 3.0 111 111