+ 0.1 0 2 tcp 40 ------- 1 0.0 3.0 0 0
- 0.1 0 2 tcp 40 ------- 1 0.0 3.0 0 0
r 0.12016 0 2 tcp 40 ------- 1 0.0 3.0 0 0
+ 0.12016 2 3 tcp 40 ------- 1 0.0 3.0 0 0
d 0.12016 2 3 tcp 40 ------- 1 0.0 3.0 0 0
+ 3.1 0 2 tcp 40 ---A--- 1 0.0 3.0 0 1
- 3.1 0 2 tcp 40 ---A--- 1 0.0 3.0 0 1
r 3.12016 0 2 tcp 40 ---A--- 1 0.0 3.0 0 1
+ 3.12016 2 3 tcp 40 ---A--- 1 0.0 3.0 0 1
d 3.12016 2 3 tcp 40 ---A--- 1 0.0 3.0 0 1
